unknown system                          
   1.00000000000000     
     0.000000    2.984000    2.984000
     2.984000    0.000000    2.984000
     2.984000    2.984000    0.000000
   Eu   S 
     1     1
Direct
  0.000000  0.000000  0.000000
  0.500000  0.500000  0.500000
 
   36   36   36
 0.17823949260E+06 0.10158405721E+04 0.11855918996E+04 0.47830018583E+03 0.27264448557E+03
 0.21615128749E+03 0.15189408487E+03 0.94167246373E+02 0.54289231740E+02 0.30218180741E+02
 0.16630654228E+02 0.92551450089E+01 0.55439339832E+01 0.37056080583E+01 0.28282218483E+01
 0.24160975423E+01 0.22335738616E+01 0.21670675734E+01 0.21527087096E+01 0.21670675734E+01
 0.22335738616E+01 0.24160975423E+01 0.28282218483E+01 0.37056080583E+01 0.55439339832E+01
 0.92551450089E+01 0.16630654228E+02 0.30218180741E+02 0.54289231740E+02 0.94167246373E+02
 0.15189408487E+03 0.21615128749E+03 0.27264448557E+03 0.47830018583E+03 0.11855918996E+04
 0.10158405721E+04 0.10158407680E+04 0.12353469810E+04 0.68842865751E+03 0.31229052014E+03
 0.23976613816E+03 0.18031916176E+03 0.11775370776E+03 0.69950197814E+02 0.39513689594E+02
 0.21838370496E+02 0.11949931834E+02 0.69368402130E+01 0.43820764732E+01 0.31495859511E+01
 0.25719583276E+01 0.23091749362E+01 0.22031750981E+01 0.21742355828E+01 0.21808523661E+01
 0.22210985152E+01 0.23363170780E+01 0.26109776033E+01 0.32058441702E+01 0.44581018846E+01
 0.70321730703E+01 0.12064746502E+02 0.21969334865E+02 0.39642606148E+02 0.70032217562E+02
 0.11771115108E+03 0.18005781059E+03 0.23926221579E+03 0.31168748360E+03 0.68714336512E+03
 0.12318047326E+04 0.10128851789E+04 0.11855922401E+04 0.68856269025E+03 0.33574198270E+03
 0.25172906788E+03 0.19836335405E+03 0.13643068099E+03 0.84147804259E+02 0.48681725183E+02
 0.27275018363E+02 0.14863906551E+02 0.85416937397E+01 0.52103446140E+01 0.35647548530E+01
 0.27884684025E+01 0.24362380060E+01 0.22893922511E+01 0.22414270788E+01 0.22381418728E+01
 0.22619382428E+01 0.23315982634E+01 0.25025706585E+01 0.28822465864E+01 0.36898014226E+01
 0.53712349162E+01 0.87429013318E+01 0.15103714612E+02 0.27530342172E+02 0.48898197082E+02
 0.84222910400E+02 0.13620976135E+03 0.19770927071E+03 0.25074637638E+03 0.33480510726E+03
 0.68682604769E+03 0.11829180187E+04 0.12314546681E+04 0.47830011953E+03 0.31234609512E+03
 0.25174652607E+03 0.20444182488E+03 0.14666527319E+03 0.94102284595E+02 0.56138202587E+02
 0.32147688983E+02 0.18080567210E+02 0.10174192415E+02 0.61091731121E+01 0.40444617838E+01
 0.30529453089E+01 0.25993881308E+01 0.24087739799E+01 0.23445101529E+01 0.23350139166E+01
 0.23481972987E+01 0.23869597814E+01 0.24859107445E+01 0.27143077850E+01 0.32072502789E+01
 0.42430869231E+01 0.63607469362E+01 0.10482763956E+02 0.18430732083E+02 0.32490392862E+02
 0.56380079264E+02 0.94089451976E+02 0.14620466661E+03 0.20345304866E+03 0.25055532471E+03
 0.31160357396E+03 0.47798706973E+03 0.68674518575E+03 0.68690239482E+03 0.27264392955E+03
 0.23978634243E+03 0.19837728513E+03 0.14667126194E+03 0.97685331839E+02 0.60340670653E+02
 0.35556435989E+02 0.20435960123E+02 0.11601903671E+02 0.69610673840E+01 0.45289224965E+01
 0.33358431656E+01 0.27844796573E+01 0.25502252916E+01 0.24690424075E+01 0.24563066424E+01
 0.24683052467E+01 0.24918702240E+01 0.25429575134E+01 0.26669512002E+01 0.29488657764E+01
 0.35528130457E+01 0.48039890279E+01 0.72990518186E+01 0.11999404877E+02 0.20863182335E+02
 0.35940619674E+02 0.60555016522E+02 0.97550922029E+02 0.14602284401E+03 0.19725118318E+03
 0.23862617204E+03 0.27206382091E+03 0.31162347644E+03 0.33475632269E+03 0.31162048780E+03
 0.21615094278E+03 0.18032971755E+03 0.13644178580E+03 0.94109702266E+02 0.60343653975E+02
 0.36784718796E+02 0.21748757710E+02 0.12580222087E+02 0.76335564266E+01 0.49514912739E+01
 0.35991027055E+01 0.29651577500E+01 0.26970840086E+01 0.26059870065E+01 0.25926696167E+01
 0.26068412236E+01 0.26277031363E+01 0.26556706070E+01 0.27136508113E+01 0.28551937413E+01
 0.31805689459E+01 0.38765618402E+01 0.52934577983E+01 0.80400299774E+01 0.13039741217E+02
 0.22216000139E+02 0.37166981342E+02 0.60500712927E+02 0.93880989869E+02 0.13573457845E+03
 0.17926666370E+03 0.21512455563E+03 0.23863700971E+03 0.25055978737E+03 0.25072209636E+03
 0.23924015598E+03 0.15189441292E+03 0.11776158746E+03 0.84156577194E+02 0.56144381222E+02
 0.35559503151E+02 0.21749723006E+02 0.12927610843E+02 0.80031389828E+01 0.52405424061E+01
 0.38063191963E+01 0.31194775622E+01 0.28285606325E+01 0.27364228876E+01 0.27323292139E+01
 0.27557041113E+01 0.27799260777E+01 0.27996060306E+01 0.28235018542E+01 0.28798765203E+01
 0.30291250052E+01 0.33811996533E+01 0.41325904196E+01 0.56329036233E+01 0.84560842761E+01
 0.13417427308E+02 0.22217458466E+02 0.35907433492E+02 0.56247023796E+02 0.83900611251E+02
 0.11712699699E+03 0.15103578619E+03 0.17926130700E+03 0.19724335142E+03 0.20343618292E+03
 0.19768701084E+03 0.18004464234E+03 0.94167709877E+02 0.69956433147E+02 0.48688385763E+02
 0.32152129984E+02 0.20438171058E+02 0.12581204012E+02 0.80035054589E+01 0.53423877599E+01
 0.39194978439E+01 0.32248126010E+01 0.29303305061E+01 0.28444151910E+01 0.28556995600E+01
 0.28978264575E+01 0.29358656327E+01 0.29580604191E+01 0.29668175706E+01 0.29766607494E+01
 0.30218072008E+01 0.31669984144E+01 0.35232579525E+01 0.42815336041E+01 0.57653156973E+01
 0.84737989679E+01 0.13066272377E+02 0.20876287816E+02 0.32454909420E+02 0.48760493215E+02
 0.69737484188E+02 0.93689397788E+02 0.11711442813E+03 0.13571390703E+03 0.14599709738E+03
 0.14617712652E+03 0.13618762443E+03 0.11770056399E+03 0.54289103394E+02 0.39517876986E+02
 0.27279824383E+02 0.18084084815E+02 0.11604006430E+02 0.76347137935E+01 0.52411664473E+01
 0.39197339205E+01 0.32616291413E+01 0.29856740665E+01 0.29169508264E+01 0.29487643132E+01
 0.30144155590E+01 0.30746458711E+01 0.31113781532E+01 0.31208499765E+01 0.31095668785E+01
 0.30971358737E+01 0.31225682296E+01 0.32508694626E+01 0.35863529885E+01 0.43009998851E+01
 0.56710291296E+01 0.80952371591E+01 0.12059888222E+02 0.18477615739E+02 0.27538945670E+02
 0.39582094863E+02 0.54142635709E+02 0.69723423179E+02 0.83875226834E+02 0.93849417717E+02
 0.97518608730E+02 0.94061691804E+02 0.84204065885E+02 0.70023757584E+02 0.30217684748E+02
 0.21840684373E+02 0.14867187872E+02 0.10177268909E+02 0.69635093261E+01 0.49531639444E+01
 0.38072365375E+01 0.32251430213E+01 0.29856998706E+01 0.29420840403E+01 0.29986172911E+01
 0.30912747992E+01 0.31786796239E+01 0.32381603143E+01 0.32610619344E+01 0.32483884973E+01
 0.32106315077E+01 0.31713806096E+01 0.31710448442E+01 0.32708879339E+01 0.35633111588E+01
 0.41918917074E+01 0.53728025445E+01 0.73970186755E+01 0.10589246223E+02 0.15209044644E+02
 0.22062128603E+02 0.30289144120E+02 0.39569256670E+02 0.48735728438E+02 0.56214374576E+02
 0.60466032024E+02 0.60524065288E+02 0.56356917728E+02 0.48884221580E+02 0.39636657090E+02
 0.16630595920E+02 0.11951550444E+02 0.85439534412E+01 0.61116828203E+01 0.45313380926E+01
 0.36009782771E+01 0.31205270107E+01 0.29306329048E+01 0.29168409554E+01 0.29984394014E+01
 0.31176457365E+01 0.32340210691E+01 0.33217809908E+01 0.33673543132E+01 0.33670954283E+01
 0.33262026485E+01 0.32592783232E+01 0.31920093828E+01 0.31631958161E+01 0.32276372591E+01
 0.34624143726E+01 0.39780206000E+01 0.49286904038E+01 0.65070537880E+01 0.89062853291E+01
 0.12244796604E+02 0.16824993526E+02 0.22051319155E+02 0.27517310114E+02 0.32424867924E+02
 0.35873413067E+02 0.37134239105E+02 0.35913736191E+02 0.32471930093E+02 0.27520265406E+02
 0.21965598093E+02 0.92556053468E+01 0.69387076555E+01 0.52125880088E+01 0.40466694521E+01
 0.33378158035E+01 0.29666490894E+01 0.28293484502E+01 0.28444969244E+01 0.29483818000E+01
 0.30907520466E+01 0.32336341928E+01 0.33504387188E+01 0.34242433498E+01 0.34466743777E+01
 0.34179642122E+01 0.33471285871E+01 0.32518018566E+01 0.31584140767E+01 0.31028962069E+01
 0.31317016025E+01 0.33043457576E+01 0.36986808841E+01 0.44149511059E+01 0.55677831190E+01
 0.72556533195E+01 0.95091404943E+01 0.12235975617E+02 0.15190942780E+02 0.18451630555E+02
 0.20845355923E+02 0.22185608348E+02 0.22187293170E+02 0.20840651975E+02 0.18415691262E+02
 0.15095598430E+02 0.12062007202E+02 0.55441432973E+01 0.43840325244E+01 0.35673575308E+01
 0.30553349331E+01 0.27861950686E+01 0.26980060851E+01 0.27366034244E+01 0.28552608225E+01
 0.30135393409E+01 0.31775979338E+01 0.33207510141E+01 0.34235533789E+01 0.34739776080E+01
 0.34679171134E+01 0.34094704187E+01 0.33107320567E+01 0.31913427736E+01 0.30777522618E+01
 0.30019433084E+01 0.30004342359E+01 0.31153110073E+01 0.33971902790E+01 0.39057181462E+01
 0.47006855164E+01 0.58199566011E+01 0.72485362502E+01 0.88915747706E+01 0.10567555459E+02
 0.12032968545E+02 0.13036930255E+02 0.13389079422E+02 0.13015498304E+02 0.11981108311E+02
 0.10470657257E+02 0.87361167813E+01 0.70294827027E+01 0.37052096349E+01 0.31509020256E+01
 0.27908068689E+01 0.26017804995E+01 0.25518433458E+01 0.26064928537E+01 0.27318387980E+01
 0.28966254365E+01 0.30729777753E+01 0.32362149993E+01 0.33653536606E+01 0.34449282328E+01
 0.34668220347E+01 0.34309039764E+01 0.33448396988E+01 0.32236806028E+01 0.30886503635E+01
 0.29645799401E+01 0.28772927646E+01 0.28531023386E+01 0.29205289012E+01 0.31114240017E+01
 0.34580891776E+01 0.39848550886E+01 0.46949498664E+01 0.55558300515E+01 0.64892547186E+01
 0.73744712185E+01 0.80696611331E+01 0.84475281031E+01 0.84318324603E+01 0.80201615319E+01
 0.72846997429E+01 0.63515389277E+01 0.53659327675E+01 0.44555638847E+01 0.28278630987E+01
 0.25726311407E+01 0.24376258764E+01 0.24103192685E+01 0.24700576104E+01 0.25926634157E+01
 0.27545686472E+01 0.29337843899E+01 0.31086195585E+01 0.32578746608E+01 0.33637407538E+01
 0.34147798170E+01 0.34068842666E+01 0.33433278837E+01 0.32351890048E+01 0.31005905196E+01
 0.29610071081E+01 0.28367768832E+01 0.27460307261E+01 0.27074223900E+01 0.27420239360E+01
 0.28705002512E+01 0.31069966815E+01 0.34535765511E+01 0.38961276895E+01 0.44004227698E+01
 0.49099968820E+01 0.53511702940E+01 0.56480190170E+01 0.57427640536E+01 0.56127403040E+01
 0.52772717352E+01 0.47925085256E+01 0.42359666864E+01 0.36859549326E+01 0.32041119087E+01
 0.24163743546E+01 0.23098902181E+01 0.22900183393E+01 0.23447925750E+01 0.24560622492E+01
 0.26058170392E+01 0.27778650971E+01 0.29548699897E+01 0.31166785474E+01 0.32435573194E+01
 0.33210977567E+01 0.33421583489E+01 0.33063455300E+01 0.32203669548E+01 0.30987996542E+01
 0.29614187977E+01 0.28270524309E+01 0.27098768195E+01 0.26222488770E+01 0.25796371307E+01
 0.25997796993E+01 0.26953001271E+01 0.28670998310E+01 0.31039810220E+01 0.33856191030E+01
 0.36834378523E+01 0.39599752965E+01 0.41722209144E+01 0.42811072276E+01 0.42628799285E+01
 0.41164116252E+01 0.38636300239E+01 0.35433921473E+01 0.32011978823E+01 0.28791005376E+01
 0.26099953604E+01 0.22340493080E+01 0.22041002037E+01 0.22418660203E+01 0.23344921385E+01
 0.24667817461E+01 0.26252143734E+01 0.27960332862E+01 0.29620020133E+01 0.31035622129E+01
 0.32037829975E+01 0.32520886617E+01 0.32447822945E+01 0.31849853765E+01 0.30834517600E+01
 0.29574114231E+01 0.28253018194E+01 0.27012382972E+01 0.25952146474E+01 0.25184170841E+01
 0.24858147435E+01 0.25109055647E+01 0.25974012762E+01 0.27365561104E+01 0.29116814825E+01
 0.31032761698E+01 0.32897068327E+01 0.34460045909E+01 0.35461500343E+01 0.35696221025E+01
 0.35081385132E+01 0.33685366658E+01 0.31706250323E+01 0.29414487882E+01 0.27091656537E+01
 0.24996043067E+01 0.23353618989E+01 0.21669764335E+01 0.21746537139E+01 0.22382459018E+01
 0.23472270649E+01 0.24894197304E+01 0.26516569961E+01 0.28179577649E+01 0.29696468771E+01
 0.30888385109E+01 0.31622043760E+01 0.31825225054E+01 0.31492207392E+01 0.30694254278E+01
 0.29576478360E+01 0.28316610831E+01 0.27067591926E+01 0.25939237582E+01 0.25033615471E+01
 0.24478094761E+01 0.24397473450E+01 0.24843922758E+01 0.25760153663E+01 0.27011356073E+01
 0.28440849353E+01 0.29890132828E+01 0.31184895115E+01 0.32133934468E+01 0.32564444640E+01
 0.32371234543E+01 0.31548459261E+01 0.30192399129E+01 0.28477712864E+01 0.26616830674E+01
 0.24822872662E+01 0.23292784023E+01 0.22199755982E+01 0.21522049498E+01 0.21802554342E+01
 0.22609376034E+01 0.23850115214E+01 0.25394369240E+01 0.27081179167E+01 0.28722345764E+01
 0.30122896271E+01 0.31116398186E+01 0.31593071785E+01 0.31513206390E+01 0.30915771937E+01
 0.29918510219E+01 0.28690081959E+01 0.27399416484E+01 0.26184359451E+01 0.25165896371E+01
 0.24473318639E+01 0.24225610657E+01 0.24473318639E+01 0.25165896371E+01 0.26184359451E+01
 0.27399416484E+01 0.28690081959E+01 0.29918510219E+01 0.30915771937E+01 0.31513206390E+01
 0.31593071785E+01 0.31116398186E+01 0.30122896271E+01 0.28722345764E+01 0.27081179167E+01
 0.25394369240E+01 0.23850115214E+01 0.22609376034E+01 0.21802554342E+01 0.21669764335E+01
 0.22199755982E+01 0.23292784023E+01 0.24822872662E+01 0.26616830674E+01 0.28477712864E+01
 0.30192399129E+01 0.31548459261E+01 0.32371234543E+01 0.32564444640E+01 0.32133934468E+01
 0.31184895115E+01 0.29890132828E+01 0.28440849353E+01 0.27011356073E+01 0.25760153663E+01
 0.24843922758E+01 0.24397473450E+01 0.24478094761E+01 0.25033615471E+01 0.25939237582E+01
 0.27067591926E+01 0.28316610831E+01 0.29576478360E+01 0.30694254278E+01 0.31492207392E+01
 0.31825225054E+01 0.31622043760E+01 0.30888385109E+01 0.29696468771E+01 0.28179577649E+01
 0.26516569961E+01 0.24894197304E+01 0.23472270649E+01 0.22382459018E+01 0.21746537139E+01
 0.22340493080E+01 0.23353618989E+01 0.24996043067E+01 0.27091656537E+01 0.29414487882E+01
 0.31706250323E+01 0.33685366658E+01 0.35081385132E+01 0.35696221025E+01 0.35461500343E+01
 0.34460045909E+01 0.32897068327E+01 0.31032761698E+01 0.29116814825E+01 0.27365561104E+01
 0.25974012762E+01 0.25109055647E+01 0.24858147435E+01 0.25184170841E+01 0.25952146474E+01
 0.27012382972E+01 0.28253018194E+01 0.29574114231E+01 0.30834517600E+01 0.31849853765E+01
 0.32447822945E+01 0.32520886617E+01 0.32037829975E+01 0.31035622129E+01 0.29620020133E+01
 0.27960332862E+01 0.26252143734E+01 0.24667817461E+01 0.23344921385E+01 0.22418660203E+01
 0.22041002037E+01 0.24163743546E+01 0.26099953604E+01 0.28791005376E+01 0.32011978823E+01
 0.35433921473E+01 0.38636300239E+01 0.41164116252E+01 0.42628799285E+01 0.42811072276E+01
 0.41722209144E+01 0.39599752965E+01 0.36834378523E+01 0.33856191030E+01 0.31039810220E+01
 0.28670998310E+01 0.26953001271E+01 0.25997796993E+01 0.25796371307E+01 0.26222488770E+01
 0.27098768195E+01 0.28270524309E+01 0.29614187977E+01 0.30987996542E+01 0.32203669548E+01
 0.33063455300E+01 0.33421583489E+01 0.33210977567E+01 0.32435573194E+01 0.31166785474E+01
 0.29548699897E+01 0.27778650971E+01 0.26058170392E+01 0.24560622492E+01 0.23447925750E+01
 0.22900183393E+01 0.23098902181E+01 0.28278630987E+01 0.32041119087E+01 0.36859549326E+01
 0.42359666864E+01 0.47925085256E+01 0.52772717352E+01 0.56127403040E+01 0.57427640536E+01
 0.56480190170E+01 0.53511702940E+01 0.49099968820E+01 0.44004227698E+01 0.38961276895E+01
 0.34535765511E+01 0.31069966815E+01 0.28705002512E+01 0.27420239360E+01 0.27074223900E+01
 0.27460307261E+01 0.28367768832E+01 0.29610071081E+01 0.31005905196E+01 0.32351890048E+01
 0.33433278837E+01 0.34068842666E+01 0.34147798170E+01 0.33637407538E+01 0.32578746608E+01
 0.31086195585E+01 0.29337843899E+01 0.27545686472E+01 0.25926634157E+01 0.24700576104E+01
 0.24103192685E+01 0.24376258764E+01 0.25726311407E+01 0.37052096349E+01 0.44555638847E+01
 0.53659327675E+01 0.63515389277E+01 0.72846997429E+01 0.80201615319E+01 0.84318324603E+01
 0.84475281031E+01 0.80696611331E+01 0.73744712185E+01 0.64892547186E+01 0.55558300515E+01
 0.46949498664E+01 0.39848550886E+01 0.34580891776E+01 0.31114240017E+01 0.29205289012E+01
 0.28531023386E+01 0.28772927646E+01 0.29645799401E+01 0.30886503635E+01 0.32236806028E+01
 0.33448396988E+01 0.34309039764E+01 0.34668220347E+01 0.34449282328E+01 0.33653536606E+01
 0.32362149993E+01 0.30729777753E+01 0.28966254365E+01 0.27318387980E+01 0.26064928537E+01
 0.25518433458E+01 0.26017804995E+01 0.27908068689E+01 0.31509020256E+01 0.55441432973E+01
 0.70294827027E+01 0.87361167813E+01 0.10470657257E+02 0.11981108311E+02 0.13015498304E+02
 0.13389079422E+02 0.13036930255E+02 0.12032968545E+02 0.10567555459E+02 0.88915747706E+01
 0.72485362502E+01 0.58199566011E+01 0.47006855164E+01 0.39057181462E+01 0.33971902790E+01
 0.31153110073E+01 0.30004342359E+01 0.30019433084E+01 0.30777522618E+01 0.31913427736E+01
 0.33107320567E+01 0.34094704187E+01 0.34679171134E+01 0.34739776080E+01 0.34235533789E+01
 0.33207510141E+01 0.31775979338E+01 0.30135393409E+01 0.28552608225E+01 0.27366034244E+01
 0.26980060851E+01 0.27861950686E+01 0.30553349331E+01 0.35673575308E+01 0.43840325244E+01
 0.92556053468E+01 0.12062007202E+02 0.15095598430E+02 0.18415691262E+02 0.20840651975E+02
 0.22187293170E+02 0.22185608348E+02 0.20845355923E+02 0.18451630555E+02 0.15190942780E+02
 0.12235975617E+02 0.95091404943E+01 0.72556533195E+01 0.55677831190E+01 0.44149511059E+01
 0.36986808841E+01 0.33043457576E+01 0.31317016025E+01 0.31028962069E+01 0.31584140767E+01
 0.32518018566E+01 0.33471285871E+01 0.34179642122E+01 0.34466743777E+01 0.34242433498E+01
 0.33504387188E+01 0.32336341928E+01 0.30907520466E+01 0.29483818000E+01 0.28444969244E+01
 0.28293484502E+01 0.29666490894E+01 0.33378158035E+01 0.40466694521E+01 0.52125880088E+01
 0.69387076555E+01 0.16630595920E+02 0.21965598093E+02 0.27520265406E+02 0.32471930093E+02
 0.35913736191E+02 0.37134239105E+02 0.35873413067E+02 0.32424867924E+02 0.27517310114E+02
 0.22051319155E+02 0.16824993526E+02 0.12244796604E+02 0.89062853291E+01 0.65070537880E+01
 0.49286904038E+01 0.39780206000E+01 0.34624143726E+01 0.32276372591E+01 0.31631958161E+01
 0.31920093828E+01 0.32592783232E+01 0.33262026485E+01 0.33670954283E+01 0.33673543132E+01
 0.33217809908E+01 0.32340210691E+01 0.31176457365E+01 0.29984394014E+01 0.29168409554E+01
 0.29306329048E+01 0.31205270107E+01 0.36009782771E+01 0.45313380926E+01 0.61116828203E+01
 0.85439534412E+01 0.11951550444E+02 0.30217684748E+02 0.39636657090E+02 0.48884221580E+02
 0.56356917728E+02 0.60524065288E+02 0.60466032024E+02 0.56214374576E+02 0.48735728438E+02
 0.39569256670E+02 0.30289144120E+02 0.22062128603E+02 0.15209044644E+02 0.10589246223E+02
 0.73970186755E+01 0.53728025445E+01 0.41918917074E+01 0.35633111588E+01 0.32708879339E+01
 0.31710448442E+01 0.31713806096E+01 0.32106315077E+01 0.32483884973E+01 0.32610619344E+01
 0.32381603143E+01 0.31786796239E+01 0.30912747992E+01 0.29986172911E+01 0.29420840403E+01
 0.29856998706E+01 0.32251430213E+01 0.38072365375E+01 0.49531639444E+01 0.69635093261E+01
 0.10177268909E+02 0.14867187872E+02 0.21840684373E+02 0.54289103394E+02 0.70023757584E+02
 0.84204065885E+02 0.94061691804E+02 0.97518608730E+02 0.93849417717E+02 0.83875226834E+02
 0.69723423179E+02 0.54142635709E+02 0.39582094863E+02 0.27538945670E+02 0.18477615739E+02
 0.12059888222E+02 0.80952371591E+01 0.56710291296E+01 0.43009998851E+01 0.35863529885E+01
 0.32508694626E+01 0.31225682296E+01 0.30971358737E+01 0.31095668785E+01 0.31208499765E+01
 0.31113781532E+01 0.30746458711E+01 0.30144155590E+01 0.29487643132E+01 0.29169508264E+01
 0.29856740665E+01 0.32616291413E+01 0.39197339205E+01 0.52411664473E+01 0.76347137935E+01
 0.11604006430E+02 0.18084084815E+02 0.27279824383E+02 0.39517876986E+02 0.94167709877E+02
 0.11770056399E+03 0.13618762443E+03 0.14617712652E+03 0.14599709738E+03 0.13571390703E+03
 0.11711442813E+03 0.93689397788E+02 0.69737484188E+02 0.48760493215E+02 0.32454909420E+02
 0.20876287816E+02 0.13066272377E+02 0.84737989679E+01 0.57653156973E+01 0.42815336041E+01
 0.35232579525E+01 0.31669984144E+01 0.30218072008E+01 0.29766607494E+01 0.29668175706E+01
 0.29580604191E+01 0.29358656327E+01 0.28978264575E+01 0.28556995600E+01 0.28444151910E+01
 0.29303305061E+01 0.32248126010E+01 0.39194978439E+01 0.53423877599E+01 0.80035054589E+01
 0.12581204012E+02 0.20438171058E+02 0.32152129984E+02 0.48688385763E+02 0.69956433147E+02
 0.15189441292E+03 0.18004464234E+03 0.19768701084E+03 0.20343618292E+03 0.19724335142E+03
 0.17926130700E+03 0.15103578619E+03 0.11712699699E+03 0.83900611251E+02 0.56247023796E+02
 0.35907433492E+02 0.22217458466E+02 0.13417427308E+02 0.84560842761E+01 0.56329036233E+01
 0.41325904196E+01 0.33811996533E+01 0.30291250052E+01 0.28798765203E+01 0.28235018542E+01
 0.27996060306E+01 0.27799260777E+01 0.27557041113E+01 0.27323292139E+01 0.27364228876E+01
 0.28285606325E+01 0.31194775622E+01 0.38063191963E+01 0.52405424061E+01 0.80031389828E+01
 0.12927610843E+02 0.21749723006E+02 0.35559503151E+02 0.56144381222E+02 0.84156577194E+02
 0.11776158746E+03 0.21615094278E+03 0.23924015598E+03 0.25072209636E+03 0.25055978737E+03
 0.23863700971E+03 0.21512455563E+03 0.17926666370E+03 0.13573457845E+03 0.93880989869E+02
 0.60500712927E+02 0.37166981342E+02 0.22216000139E+02 0.13039741217E+02 0.80400299774E+01
 0.52934577983E+01 0.38765618402E+01 0.31805689459E+01 0.28551937413E+01 0.27136508113E+01
 0.26556706070E+01 0.26277031363E+01 0.26068412236E+01 0.25926696167E+01 0.26059870065E+01
 0.26970840086E+01 0.29651577500E+01 0.35991027055E+01 0.49514912739E+01 0.76335564266E+01
 0.12580222087E+02 0.21748757710E+02 0.36784718796E+02 0.60343653975E+02 0.94109702266E+02
 0.13644178580E+03 0.18032971755E+03 0.27264392955E+03 0.31162048780E+03 0.33475632269E+03
 0.31162347644E+03 0.27206382091E+03 0.23862617204E+03 0.19725118318E+03 0.14602284401E+03
 0.97550922029E+02 0.60555016522E+02 0.35940619674E+02 0.20863182335E+02 0.11999404877E+02
 0.72990518186E+01 0.48039890279E+01 0.35528130457E+01 0.29488657764E+01 0.26669512002E+01
 0.25429575134E+01 0.24918702240E+01 0.24683052467E+01 0.24563066424E+01 0.24690424075E+01
 0.25502252916E+01 0.27844796573E+01 0.33358431656E+01 0.45289224965E+01 0.69610673840E+01
 0.11601903671E+02 0.20435960123E+02 0.35556435989E+02 0.60340670653E+02 0.97685331839E+02
 0.14667126194E+03 0.19837728513E+03 0.23978634243E+03 0.47830011953E+03 0.68690239482E+03
 0.68674518575E+03 0.47798706973E+03 0.31160357396E+03 0.25055532471E+03 0.20345304866E+03
 0.14620466661E+03 0.94089451976E+02 0.56380079264E+02 0.32490392862E+02 0.18430732083E+02
 0.10482763956E+02 0.63607469362E+01 0.42430869231E+01 0.32072502789E+01 0.27143077850E+01
 0.24859107445E+01 0.23869597814E+01 0.23481972987E+01 0.23350139166E+01 0.23445101529E+01
 0.24087739799E+01 0.25993881308E+01 0.30529453089E+01 0.40444617838E+01 0.61091731121E+01
 0.10174192415E+02 0.18080567210E+02 0.32147688983E+02 0.56138202587E+02 0.94102284595E+02
 0.14666527319E+03 0.20444182488E+03 0.25174652607E+03 0.31234609512E+03 0.11855922401E+04
 0.12314546681E+04 0.11829180187E+04 0.68682604769E+03 0.33480510726E+03 0.25074637638E+03
 0.19770927071E+03 0.13620976135E+03 0.84222910400E+02 0.48898197082E+02 0.27530342172E+02
 0.15103714612E+02 0.87429013318E+01 0.53712349162E+01 0.36898014226E+01 0.28822465864E+01
 0.25025706585E+01 0.23315982634E+01 0.22619382428E+01 0.22381418728E+01 0.22414270788E+01
 0.22893922511E+01 0.24362380060E+01 0.27884684025E+01 0.35647548530E+01 0.52103446140E+01
 0.85416937397E+01 0.14863906551E+02 0.27275018363E+02 0.48681725183E+02 0.84147804259E+02
 0.13643068099E+03 0.19836335405E+03 0.25172906788E+03 0.33574198270E+03 0.68856269025E+03
 0.10158407680E+04 0.10128851789E+04 0.12318047326E+04 0.68714336512E+03 0.31168748360E+03
 0.23926221579E+03 0.18005781059E+03 0.11771115108E+03 0.70032217562E+02 0.39642606148E+02
 0.21969334865E+02 0.12064746502E+02 0.70321730703E+01 0.44581018846E+01 0.32058441702E+01
 0.26109776033E+01 0.23363170780E+01 0.22210985152E+01 0.21808523661E+01 0.21742355828E+01
 0.22031750981E+01 0.23091749362E+01 0.25719583276E+01 0.31495859511E+01 0.43820764732E+01
 0.69368402130E+01 0.11949931834E+02 0.21838370496E+02 0.39513689594E+02 0.69950197814E+02
 0.11775370776E+03 0.18031916176E+03 0.23976613816E+03 0.31229052014E+03 0.68842865751E+03
 0.12353469810E+04 0.10128884013E+04 0.12314616374E+04 0.68690689003E+03 0.31162073294E+03
 0.23923920661E+03 0.18004475978E+03 0.11770065319E+03 0.70022707798E+02 0.39635892075E+02
 0.21966504066E+02 0.12063156384E+02 0.70288451571E+01 0.44540669059E+01 0.32042931388E+01
 0.26117539444E+01 0.23359561641E+01 0.22184790783E+01 0.21791312694E+01 0.21757448629E+01
 0.22056055715E+01 0.23093209888E+01 0.25708641256E+01 0.31506861753E+01 0.43855201105E+01
 0.69393789167E+01 0.11950446265E+02 0.21839803081E+02 0.39518628576E+02 0.69957406062E+02
 0.11776137286E+03 0.18032956359E+03 0.23978752476E+03 0.31234631816E+03 0.68855853723E+03
 0.12353398363E+04 0.10158366821E+04 0.12318112668E+04 0.84147036351E+03 0.36750793056E+03
 0.25731775291E+03 0.20394199897E+03 0.14129155210E+03 0.87338137007E+02 0.50508867981E+02
 0.28258530050E+02 0.15345754623E+02 0.87775745886E+01 0.53023239097E+01 0.35745353018E+01
 0.27486111671E+01 0.23631218508E+01 0.21926730695E+01 0.21280131979E+01 0.21129273199E+01
 0.21286162639E+01 0.21939883960E+01 0.23652127663E+01 0.27513147187E+01 0.35775886115E+01
 0.53058061517E+01 0.87820296393E+01 0.15351692610E+02 0.28265895299E+02 0.50518425024E+02
 0.87351660909E+02 0.14131066764E+03 0.20396773283E+03 0.25735836074E+03 0.36758500259E+03
 0.84146093266E+03 0.12314534359E+04 0.10397159437E+04 0.68714735399E+03 0.36758968092E+03
 0.26427964832E+03 0.21590570981E+03 0.15716312146E+03 0.10133033844E+03 0.60368715237E+02
 0.34419051427E+02 0.19230725206E+02 0.10686484604E+02 0.62979109263E+01 0.40537963580E+01
 0.29619854820E+01 0.24473775335E+01 0.22162956033E+01 0.21253486822E+01 0.20993568503E+01
 0.21033358475E+01 0.21395880958E+01 0.22444612164E+01 0.24898863819E+01 0.30172713967E+01
 0.41233550668E+01 0.63867996029E+01 0.10797146789E+02 0.19355736687E+02 0.34538895363E+02
 0.60449621738E+02 0.10131533824E+03 0.15697594984E+03 0.21551132043E+03 0.26379373348E+03
 0.36715830264E+03 0.68674431219E+03 0.10196507882E+04 0.10194113327E+04 0.31168751456E+03
 0.25735748875E+03 0.21591845285E+03 0.16271728293E+03 0.10915184596E+03 0.67308944320E+02
 0.39404823974E+02 0.22427642066E+02 0.12508302578E+02 0.73244068690E+01 0.45868147330E+01
 0.32256159066E+01 0.25770923179E+01 0.22812443023E+01 0.21596682144E+01 0.21222337293E+01
 0.21213069480E+01 0.21413023948E+01 0.21989985505E+01 0.23429852883E+01 0.26638305093E+01
 0.33400136284E+01 0.47317624632E+01 0.75023931089E+01 0.12717007266E+02 0.22648791853E+02
 0.39595150063E+02 0.67391645066E+02 0.10901679935E+03 0.16226464272E+03 0.21519250089E+03
 0.25670712568E+03 0.31162349165E+03 0.41404753333E+03 0.47832018290E+03 0.41353061249E+03
 0.23926140035E+03 0.20396467265E+03 0.15717780284E+03 0.10915815526E+03 0.69818425871E+02
 0.42210761763E+02 0.24652723560E+02 0.13947319630E+02 0.82295640422E+01 0.51022718850E+01
 0.35017146535E+01 0.27262747009E+01 0.23710342489E+01 0.22228644197E+01 0.21732839892E+01
 0.21673744316E+01 0.21810288145E+01 0.22138728535E+01 0.22910508038E+01 0.24706221936E+01
 0.28624592500E+01 0.36776667303E+01 0.53188102069E+01 0.84858324565E+01 0.14234333231E+02
 0.24935930182E+02 0.42420632462E+02 0.69847875896E+02 0.10888495525E+03 0.15654437017E+03
 0.20312430750E+03 0.23863766654E+03 0.26421405861E+03 0.28243551486E+03 0.28231072674E+03
 0.26428924083E+03 0.18005818643E+03 0.14130878767E+03 0.10134418057E+03 0.67317062717E+02
 0.42213879980E+02 0.25454090707E+02 0.14742807106E+02 0.88511746738E+01 0.55123848710E+01
 0.37491290961E+01 0.28727588353E+01 0.24655444698E+01 0.22969005193E+01 0.22422430035E+01
 0.22351746348E+01 0.22455653523E+01 0.22662542608E+01 0.23066971379E+01 0.23981435504E+01
 0.26069452143E+01 0.30572874713E+01 0.39792825261E+01 0.57889095127E+01 0.91685822189E+01
 0.15079895506E+02 0.25759375814E+02 0.42403419589E+02 0.67280820009E+02 0.10098583385E+03
 0.14063342155E+03 0.17926069008E+03 0.20930160533E+03 0.22730738470E+03 0.23329054605E+03
 0.22755837915E+03 0.20990332435E+03 0.11771139415E+03 0.87351745002E+02 0.60379762656E+02
 0.39411727089E+02 0.24656273848E+02 0.14744224461E+02 0.90731059284E+01 0.57386238463E+01
 0.39196230874E+01 0.29914501854E+01 0.25515532992E+01 0.23684100178E+01 0.23129861891E+01
 0.23117104773E+01 0.23262107698E+01 0.23429679276E+01 0.23640471147E+01 0.24050955828E+01
 0.25034250278E+01 0.27312153192E+01 0.32177585054E+01 0.41943298415E+01 0.60591139610E+01
 0.94261751528E+01 0.15098213199E+02 0.24951404359E+02 0.39563919747E+02 0.60298013694E+02
 0.86985180311E+02 0.11711427135E+03 0.14584668262E+03 0.16787535063E+03 0.17965243288E+03
 0.17981909015E+03 0.16834703541E+03 0.14649237696E+03 0.70031175515E+02 0.50519260762E+02
 0.34427360780E+02 0.22432908355E+02 0.13950450334E+02 0.88529680117E+01 0.57394522875E+01
 0.39803581070E+01 0.30569056499E+01 0.26115873641E+01 0.24265419648E+01 0.23753803038E+01
 0.23834409154E+01 0.24081426946E+01 0.24300959076E+01 0.24451856843E+01 0.24599262003E+01
 0.24946957848E+01 0.25915510508E+01 0.28239646440E+01 0.33168580565E+01 0.42855305378E+01
 0.60820110353E+01 0.92141920869E+01 0.14293562974E+02 0.22698385125E+02 0.34543391473E+02
 0.50427097632E+02 0.69723580240E+02 0.90332234453E+02 0.10888855536E+03 0.12181094396E+03
 0.12651872794E+03 0.12207561990E+03 0.10932328664E+03 0.90778531363E+02 0.39641796163E+02
 0.28266208732E+02 0.19237405694E+02 0.12513094378E+02 0.82326199486E+01 0.55143230447E+01
 0.39207659328E+01 0.30573714054E+01 0.26329194054E+01 0.24585630308E+01 0.24182659933E+01
 0.24397459614E+01 0.24787240865E+01 0.25120171182E+01 0.25312442025E+01 0.25372045149E+01
 0.25397591061E+01 0.25628385826E+01 0.26498926298E+01 0.28708499230E+01 0.33388694280E+01
 0.42396280628E+01 0.58589726773E+01 0.85810972366E+01 0.12828023986E+02 0.19467212491E+02
 0.28358675226E+02 0.39569338288E+02 0.52310145492E+02 0.64946337887E+02 0.75262268541E+02
 0.81123306989E+02 0.81214777597E+02 0.75498138579E+02 0.65228543913E+02 0.52526494028E+02
 0.21970216716E+02 0.15351268934E+02 0.10692066187E+02 0.73291405964E+01 0.51057462028E+01
 0.37513276498E+01 0.29926262056E+01 0.26120846883E+01 0.24586858460E+01 0.24332619698E+01