unknown system                          
   1.00000000000000     
     0.000000    2.816500    2.816500
     2.816500    0.000000    2.816500
     2.816500    2.816500    0.000000
   Ge
     2
Direct
  0.000000  0.000000  0.000000
  0.250000  0.250000  0.250000
 
   48   48   48
 -.66145509712E+01 -.58374161195E+01 -.36197515749E+01 -.28163496281E+00 0.37102360686E+01
 0.78291266320E+01 0.11582225969E+02 0.14589114107E+02 0.16626896424E+02 0.17636678817E+02
 0.17699458937E+02 0.16996495613E+02 0.15767518375E+02 0.14273527091E+02 0.12765095121E+02
 0.11424947487E+02 0.10272657726E+02 0.92922781279E+01 0.84721993582E+01 0.78032537665E+01
 0.72763665856E+01 0.68815929389E+01 0.66087812928E+01 0.64491032001E+01 0.63965801250E+01
 0.64491032331E+01 0.66087812959E+01 0.68815928704E+01 0.72763664800E+01 0.78032536953E+01
 0.84721993599E+01 0.92922781932E+01 0.10272657823E+02 0.11424947571E+02 0.12765095129E+02
 0.14273526983E+02 0.15767518201E+02 0.16996495493E+02 0.17699458946E+02 0.17636678896E+02
 0.16626896457E+02 0.14589114071E+02 0.11582225976E+02 0.78291267827E+01 0.37102363038E+01
 -.28163480983E+00 -.36197515849E+01 -.58374161955E+01 -.58374161195E+01 -.43592624387E+01
 -.16105944529E+01 0.20300845687E+01 0.60809012454E+01 0.10041557452E+02 0.13476420149E+02
 0.16076192690E+02 0.17686354915E+02 0.18302798368E+02 0.18044783922E+02 0.17117769660E+02
 0.15774837438E+02 0.14280233050E+02 0.12871362250E+02 0.11645715606E+02 0.10591143741E+02
 0.96958238196E+01 0.89517131246E+01 0.83518144858E+01 0.78881815688E+01 0.75517378650E+01
 0.73335208538E+01 0.72263832130E+01 0.72263832874E+01 0.73335209694E+01 0.75517378668E+01
 0.78881814824E+01 0.83518144409E+01 0.89517131293E+01 0.96958237779E+01 0.10591143668E+02
 0.11645715643E+02 0.12871362422E+02 0.14280233163E+02 0.15774837329E+02 0.17117769441E+02
 0.18044783858E+02 0.18302798530E+02 0.17686355036E+02 0.16076192358E+02 0.13476419185E+02
 0.10041556236E+02 0.60809007269E+01 0.20300856911E+01 -.16105916976E+01 -.43592594397E+01
 -.58374148152E+01 -.36197515749E+01 -.16105944529E+01 0.14340974991E+01 0.51126963366E+01
 0.89624150768E+01 0.12536429240E+02 0.15472112187E+02 0.17535729549E+02 0.18637723636E+02
 0.18822483360E+02 0.18241736237E+02 0.17120031364E+02 0.15717298153E+02 0.14291061655E+02
 0.13018755857E+02 0.11913016801E+02 0.10961775356E+02 0.10157720340E+02 0.94958058519E+01
 0.89704707361E+01 0.85744762601E+01 0.82995806094E+01 0.81381921925E+01 0.80850245840E+01
 0.81381922375E+01 0.82995806759E+01 0.85744763134E+01 0.89704707547E+01 0.94958058405E+01
 0.10157720311E+02 0.10961775313E+02 0.11913016755E+02 0.13018755857E+02 0.14291061736E+02
 0.15717298256E+02 0.17120031362E+02 0.18241736112E+02 0.18822483293E+02 0.18637723788E+02
 0.17535729709E+02 0.15472111812E+02 0.12536428071E+02 0.89624137517E+01 0.51126961562E+01
 0.14340992819E+01 -.16105913983E+01 -.36197491995E+01 -.43214731172E+01 -.28163496281E+00
 0.20300845687E+01 0.51126963366E+01 0.85747606493E+01 0.11999806155E+02 0.15011371399E+02
 0.17325443554E+02 0.18780985504E+02 0.19346881746E+02 0.19109652848E+02 0.18248036494E+02
 0.16999209889E+02 0.15620136693E+02 0.14334972774E+02 0.13207210917E+02 0.12225634135E+02
 0.11383358408E+02 0.10676918623E+02 0.10103133798E+02 0.96570367028E+01 0.93317967987E+01
 0.91201026573E+01 0.90159336822E+01 0.90159336494E+01 0.91201026268E+01 0.93317968526E+01
 0.96570367932E+01 0.10103133839E+02 0.10676918643E+02 0.11383358474E+02 0.12225634180E+02
 0.13207210822E+02 0.14334972605E+02 0.15620136656E+02 0.16999210006E+02 0.18248036525E+02
 0.19109652658E+02 0.19346881585E+02 0.18780985693E+02 0.17325443972E+02 0.15011371532E+02
 0.11999805729E+02 0.85747600326E+01 0.51126961825E+01 0.20300851163E+01 -.28163414844E+00
 -.15197826611E+01 -.15197830425E+01 0.37102360686E+01 0.60809012454E+01 0.89624150768E+01
 0.11999806155E+02 0.14839858740E+02 0.17182672776E+02 0.18820413698E+02 0.19658088235E+02
 0.19716121756E+02 0.19117240921E+02 0.18060606576E+02 0.16786282645E+02 0.15531910608E+02
 0.14416183388E+02 0.13435092871E+02 0.12582086177E+02 0.11854823242E+02 0.11252164961E+02
 0.10771448384E+02 0.10407628500E+02 0.10154227424E+02 0.10005077479E+02 0.99558710612E+01
 0.10005077486E+02 0.10154227409E+02 0.10407628464E+02 0.10771448389E+02 0.11252165077E+02
 0.11854823450E+02 0.12582086345E+02 0.13435092862E+02 0.14416183205E+02 0.15531910401E+02
 0.16786282557E+02 0.18060606583E+02 0.19117240858E+02 0.19716121529E+02 0.19658087983E+02
 0.18820413692E+02 0.17182673148E+02 0.14839859316E+02 0.11999806573E+02 0.89624150789E+01
 0.60809008594E+01 0.37102355527E+01 0.21524379214E+01 0.16095286247E+01 0.21524382694E+01
 0.78291266320E+01 0.10041557452E+02 0.12536429240E+02 0.15011371399E+02 0.17182672776E+02
 0.18824890970E+02 0.19799764377E+02 0.20071072873E+02 0.19704354988E+02 0.18851641746E+02
 0.17722671882E+02 0.16546222363E+02 0.15479461577E+02 0.14533113364E+02 0.13701080172E+02
 0.12981750081E+02 0.12375484819E+02 0.11881585491E+02 0.11496773253E+02 0.11215578806E+02
 0.11031624477E+02 0.10940558619E+02 0.10940558680E+02 0.11031624542E+02 0.11215578713E+02
 0.11496773074E+02 0.11881585472E+02 0.12375485062E+02 0.12981750430E+02 0.13701080402E+02
 0.14533113381E+02 0.15479461425E+02 0.16546222149E+02 0.17722671737E+02 0.18851641736E+02
 0.19704354991E+02 0.20071072641E+02 0.19799763842E+02 0.18824890426E+02 0.17182672643E+02
 0.15011371809E+02 0.12536429949E+02 0.10041558133E+02 0.78291271339E+01 0.61760306886E+01
 0.52927866685E+01 0.52927865609E+01 0.61760303797E+01 0.11582225969E+02 0.13476420149E+02
 0.15472112187E+02 0.17325443554E+02 0.18820413698E+02 0.19799764377E+02 0.20187497470E+02
 0.19999373219E+02 0.19338729720E+02 0.18376754654E+02 0.17319457235E+02 0.16338662912E+02
 0.15462230352E+02 0.14684777231E+02 0.14005166373E+02 0.13424672274E+02 0.12943960985E+02
 0.12559707826E+02 0.12264102736E+02 0.12053099730E+02 0.11926036696E+02 0.11883548675E+02
 0.11926036748E+02 0.12053099695E+02 0.12264102533E+02 0.12559707581E+02 0.12943960951E+02
 0.13424672578E+02 0.14005166871E+02 0.14684777620E+02 0.15462230423E+02 0.16338662711E+02
 0.17319456993E+02 0.18376754575E+02 0.19338729828E+02 0.19999373351E+02 0.20187497380E+02
 0.19799763892E+02 0.18820412848E+02 0.17325442657E+02 0.15472111775E+02 0.13476420681E+02
 0.11582227465E+02 0.10026553487E+02 0.90062810420E+01 0.86511194614E+01 0.90062797513E+01
 0.10026551621E+02 0.14589114107E+02 0.16076192690E+02 0.17535729549E+02 0.18780985504E+02
 0.19658088235E+02 0.20071072873E+02 0.19999373219E+02 0.19503082290E+02 0.18712783296E+02
 0.17804083611E+02 0.16943118416E+02 0.16169685897E+02 0.15479461577E+02 0.14871682491E+02
 0.14348032752E+02 0.13908371300E+02 0.13542702793E+02 0.13244396749E+02 0.13014064244E+02
 0.12856106212E+02 0.12775536477E+02 0.12775536488E+02 0.12856106194E+02 0.13014064085E+02
 0.13244396404E+02 0.13542702431E+02 0.13908371250E+02 0.14348033177E+02 0.14871683154E+02
 0.15479462028E+02 0.16169685907E+02 0.16943118141E+02 0.17804083343E+02 0.18712783198E+02
 0.19503082420E+02 0.19999373597E+02 0.20071073337E+02 0.19658088325E+02 0.18780984777E+02
 0.17535728166E+02 0.16076191552E+02 0.14589114178E+02 0.13266228245E+02 0.12277656635E+02
 0.11749795141E+02 0.11749794353E+02 0.12277654881E+02 0.13266226848E+02 0.16626896424E+02
 0.17686354915E+02 0.18637723636E+02 0.19346881746E+02 0.19716121756E+02 0.19704354988E+02
 0.19338729720E+02 0.18712783296E+02 0.17969156398E+02 0.17255328969E+02 0.16612795724E+02
 0.16038451101E+02 0.15531910608E+02 0.15094853298E+02 0.14720676305E+02 0.14393192155E+02
 0.14107562435E+02 0.13868777152E+02 0.13686846650E+02 0.13572408952E+02 0.13533307697E+02
 0.13572409045E+02 0.13686846623E+02 0.13868776799E+02 0.14107561823E+02 0.14393191659E+02
 0.14720676323E+02 0.15094853873E+02 0.15531911359E+02 0.16038451557E+02 0.16612795708E+02
 0.17255328643E+02 0.17969156012E+02 0.18712783016E+02 0.19338729704E+02 0.19704355403E+02
 0.19716122560E+02 0.19346882476E+02 0.18637723656E+02 0.17686354028E+02 0.16626895172E+02
 0.15606581179E+02 0.14763774975E+02 0.14210000434E+02 0.14017149828E+02 0.14210000150E+02
 0.14763775005E+02 0.15606581973E+02 0.17636678817E+02 0.18302798368E+02 0.18822483360E+02
 0.19109652848E+02 0.19117240921E+02 0.18851641746E+02 0.18376754654E+02 0.17804083611E+02
 0.17255328969E+02 0.16763723830E+02 0.16327159527E+02 0.15945663225E+02 0.15620136693E+02
 0.15334946673E+02 0.15068273291E+02 0.14814976544E+02 0.14583140332E+02 0.14388020675E+02
 0.14246316839E+02 0.14171675442E+02 0.14171675589E+02 0.14246317081E+02 0.14388020609E+02
 0.14583139753E+02 0.14814975688E+02 0.15068272695E+02 0.15334946758E+02 0.15620137415E+02
 0.15945664111E+02 0.16327160067E+02 0.16763723858E+02 0.17255328662E+02 0.17804083175E+02
 0.18376754145E+02 0.18851641257E+02 0.19117240788E+02 0.19109653425E+02 0.18822484518E+02
 0.18302799381E+02 0.17636678919E+02 0.16929925899E+02 0.16289080572E+02 0.15806000692E+02
 0.15547131329E+02 0.15547131766E+02 0.15806001863E+02 0.16289082004E+02 0.16929926844E+02
 0.17699458937E+02 0.18044783922E+02 0.18241736237E+02 0.18248036494E+02 0.18060606576E+02
 0.17722671882E+02 0.17319457235E+02 0.16943118416E+02 0.16612795724E+02 0.16327159527E+02
 0.16086633971E+02 0.15891186442E+02 0.15717298153E+02 0.15535852471E+02 0.15338463615E+02
 0.15133999908E+02 0.14941621336E+02 0.14783673231E+02 0.14679957618E+02 0.14643823692E+02
 0.14679958009E+02 0.14783673646E+02 0.14941621294E+02 0.15133999197E+02 0.15338462552E+02
 0.15535851739E+02 0.15717298272E+02 0.15891187316E+02 0.16086634984E+02 0.16327160121E+02
 0.16612795826E+02 0.16943118293E+02 0.17319457011E+02 0.17722671385E+02 0.18060605722E+02
 0.18248035672E+02 0.18241736094E+02 0.18044784718E+02 0.17699460180E+02 0.17273019012E+02
 0.16841594316E+02 0.16476286641E+02 0.16233333120E+02 0.16148308093E+02 0.16233333852E+02
 0.16476287465E+02 0.16841594454E+02 0.17273018203E+02 0.16996495613E+02 0.17117769660E+02
 0.17120031364E+02 0.16999209889E+02 0.16786282645E+02 0.16546222363E+02 0.16338662912E+02
 0.16169685897E+02 0.16038451101E+02 0.15945663225E+02 0.15891186442E+02 0.15847060508E+02
 0.15774837438E+02 0.15659430154E+02 0.15507252666E+02 0.15339005201E+02 0.15181363360E+02
 0.15059866664E+02 0.14993935176E+02 0.14993935479E+02 0.15059867390E+02 0.15181364012E+02
 0.15339005212E+02 0.15507251823E+02 0.15659428885E+02 0.15774836575E+02 0.15847060611E+02
 0.15891187321E+02 0.15945664172E+02 0.16038451598E+02 0.16169686035E+02 0.16338663095E+02
 0.16546222682E+02 0.16786282689E+02 0.16999209222E+02 0.17120030123E+02 0.17117768579E+02
 0.16996495408E+02 0.16787677582E+02 0.16538165376E+02 0.16298079539E+02 0.16111355662E+02
 0.16009751966E+02 0.16009751902E+02 0.16111355318E+02 0.16298078712E+02 0.16538164268E+02
 0.16787676841E+02 0.15767518375E+02 0.15774837438E+02 0.15717298153E+02 0.15620136693E+02
 0.15531910608E+02 0.15479461577E+02 0.15462230352E+02 0.15479461577E+02 0.15531910608E+02
 0.15620136693E+02 0.15717298153E+02 0.15774837438E+02 0.15767518375E+02 0.15695418107E+02
 0.15577435153E+02 0.15442284117E+02 0.15320019698E+02 0.15235747170E+02 0.15205782109E+02
 0.15235747798E+02 0.15320020669E+02 0.15442284883E+02 0.15577435144E+02 0.15695417166E+02
 0.15767517010E+02 0.15774836510E+02 0.15717298183E+02 0.15620137437E+02 0.15531911344E+02
 0.15479461835E+02 0.15462230333E+02 0.15479461835E+02 0.15531911344E+02 0.15620137437E+02
 0.15717298183E+02 0.15774836510E+02 0.15767517010E+02 0.15695417166E+02 0.15577435144E+02
 0.15442284883E+02 0.15320020669E+02 0.15235747798E+02 0.15205782109E+02 0.15235747170E+02
 0.15320019698E+02 0.15442284117E+02 0.15577435153E+02 0.15695418107E+02 0.14273527091E+02
 0.14280233050E+02 0.14291061655E+02 0.14334972774E+02 0.14416183388E+02 0.14533113364E+02
 0.14684777231E+02 0.14871682491E+02 0.15094853298E+02 0.15334946673E+02 0.15535852471E+02
 0.15659430154E+02 0.15695418107E+02 0.15656827669E+02 0.15571128240E+02 0.15470754469E+02
 0.15385397584E+02 0.15336976267E+02 0.15336976515E+02 0.15385398292E+02 0.15470755431E+02
 0.15571128987E+02 0.15656827671E+02 0.15695417222E+02 0.15659428872E+02 0.15535851608E+02
 0.15334946708E+02 0.15094853963E+02 0.14871683039E+02 0.14684777151E+02 0.14533112865E+02
 0.14416183187E+02 0.14334973379E+02 0.14291062834E+02 0.14280234001E+02 0.14273527135E+02
 0.14247393552E+02 0.14196076836E+02 0.14127090504E+02 0.14055075870E+02 0.13996034366E+02
 0.13962938326E+02 0.13962938126E+02 0.13996034003E+02 0.14055075858E+02 0.14127091169E+02
 0.14196077948E+02 0.14247394406E+02 0.12765095121E+02 0.12871362250E+02 0.13018755857E+02
 0.13207210917E+02 0.13435092871E+02 0.13701080172E+02 0.14005166373E+02 0.14348032752E+02
 0.14720676305E+02 0.15068273291E+02 0.15338463615E+02 0.15507252666E+02 0.15577435153E+02
 0.15571128240E+02 0.15520017367E+02 0.15456425808E+02 0.15406888769E+02 0.15388434050E+02
 0.15406889027E+02 0.15456426402E+02 0.15520018214E+02 0.15571128949E+02 0.15577435227E+02
 0.15507251953E+02 0.15338462545E+02 0.15068272602E+02 0.14720676432E+02 0.14348033439E+02
 0.14005166887E+02 0.13701079948E+02 0.13435092012E+02 0.13207210123E+02 0.13018755842E+02
 0.12871363150E+02 0.12765096380E+02 0.12692871817E+02 0.12635422304E+02 0.12581535716E+02
 0.12529982586E+02 0.12485584586E+02 0.12455191166E+02 0.12444359285E+02 0.12455191283E+02
 0.12485585007E+02 0.12529983332E+02 0.12581536396E+02 0.12635422347E+02 0.12692870999E+02
 0.11424947487E+02 0.11645715606E+02 0.11913016801E+02 0.12225634135E+02 0.12582086177E+02
 0.12981750081E+02 0.13424672274E+02 0.13908371300E+02 0.14393192155E+02 0.14814976544E+02
 0.15133999908E+02 0.15339005201E+02 0.15442284117E+02 0.15470754469E+02 0.15456425808E+02
 0.15428654118E+02 0.15409099936E+02 0.15409099942E+02 0.15428654257E+02 0.15456426274E+02
 0.15470755218E+02 0.15442284767E+02 0.15339005291E+02 0.15133999316E+02 0.14814975653E+02
 0.14393191592E+02 0.13908371461E+02 0.13424673028E+02 0.12981750860E+02 0.12582086364E+02
 0.12225633493E+02 0.11913015674E+02 0.11645714718E+02 0.11424947425E+02 0.11250099456E+02
 0.11117741191E+02 0.11021239437E+02 0.10949645492E+02 0.10895982705E+02 0.10858874818E+02
 0.10839621557E+02 0.10839621706E+02 0.10858875195E+02 0.10895983066E+02 0.10949645463E+02
 0.11021238792E+02 0.11117740164E+02 0.11250098692E+02 0.10272657726E+02 0.10591143741E+02
 0.10961775356E+02 0.11383358408E+02 0.11854823242E+02 0.12375484819E+02 0.12943960985E+02
 0.13542702793E+02 0.14107562435E+02 0.14583140332E+02 0.14941621336E+02 0.15181363360E+02
 0.15320019698E+02 0.15385397584E+02 0.15406888769E+02 0.15409099936E+02 0.15408004709E+02
 0.15409099794E+02 0.15406888791E+02 0.15385398003E+02 0.15320020367E+02 0.15181363850E+02
 0.14941621312E+02 0.14583139796E+02 0.14107561689E+02 0.13542702250E+02 0.12943960986E+02
 0.12375485462E+02 0.11854824249E+02 0.11383359188E+02 0.10961775361E+02 0.10591142892E+02
 0.10272656527E+02 0.10006529639E+02 0.97909221185E+01 0.96216620138E+01 0.94929928317E+01
 0.93989624742E+01 0.93347282995E+01 0.92971299626E+01 0.92846946303E+01 0.92971300811E+01
 0.93347282801E+01 0.93989620678E+01 0.94929921024E+01 0.96216614010E+01 0.97909221434E+01
 0.10006530458E+02 0.92922781279E+01 0.96958238196E+01 0.10157720340E+02 0.10676918623E+02
 0.11252164961E+02 0.11881585491E+02 0.12559707826E+02 0.13244396749E+02 0.13868777152E+02
 0.14388020675E+02 0.14783673231E+02 0.15059866664E+02 0.15235747170E+02 0.15336976267E+02
 0.15388434050E+02 0.15409099942E+02 0.15409099794E+02 0.15388433808E+02 0.15336976298E+02
 0.15235747577E+02 0.15059867185E+02 0.14783673531E+02 0.14388020625E+02 0.13868776813E+02
 0.13244396215E+02 0.12559707214E+02 0.11881585044E+02 0.11252165010E+02 0.10676919322E+02
 0.10157721424E+02 0.96958246833E+01 0.92922782386E+01 0.89473810583E+01 0.86598281636E+01
 0.84262828281E+01 0.82417768234E+01 0.81008075257E+01 0.79985830732E+01 0.79318098501E+01
 0.78987470988E+01 0.78987470508E+01 0.79318096467E+01 0.79985826852E+01 0.81008071735E+01
 0.82417769003E+01 0.84262835214E+01 0.86598291729E+01 0.89473817494E+01 0.84721993582E+01
 0.89517131246E+01 0.94958058519E+01 0.10103133798E+02 0.10771448384E+02 0.11496773253E+02
 0.12264102736E+02 0.13014064244E+02 0.13686846650E+02 0.14246316839E+02 0.14679957618E+02
 0.14993935176E+02 0.15205782109E+02 0.15336976515E+02 0.15406889027E+02 0.15428654257E+02
 0.15406888791E+02 0.15336976298E+02 0.15205782165E+02 0.14993935511E+02 0.14679958012E+02
 0.14246317088E+02 0.13686846731E+02 0.13014064217E+02 0.12264102538E+02 0.11496772721E+02
 0.10771447551E+02 0.10103133084E+02 0.94958058217E+01 0.89517139598E+01 0.84722005980E+01
 0.80576196055E+01 0.77067891824E+01 0.74166153364E+01 0.71823405661E+01 0.69984515920E+01
 0.68598635775E+01 0.67628290230E+01 0.67051967158E+01 0.66860583261E+01 0.67051965739E+01
 0.67628288524E+01 0.68598635985E+01 0.69984520032E+01 0.71823413009E+01 0.74166159562E+01
 0.77067891392E+01 0.80576187335E+01 0.78032537665E+01 0.83518144858E+01 0.89704707361E+01
 0.96570367028E+01 0.10407628500E+02 0.11215578806E+02 0.12053099730E+02 0.12856106212E+02
 0.13572408952E+02 0.14171675442E+02 0.14643823692E+02 0.14993935479E+02 0.15235747798E+02
 0.15385398292E+02 0.15456426402E+02 0.15456426274E+02 0.15385398003E+02 0.15235747577E+02
 0.14993935511E+02 0.14643823951E+02 0.14171675719E+02 0.13572409104E+02 0.12856106344E+02
 0.12053100026E+02 0.11215579176E+02 0.10407628524E+02 0.96570360496E+01 0.89704696176E+01
 0.83518135908E+01 0.78032536891E+01 0.73255041801E+01 0.69175352444E+01 0.65763208334E+01
 0.62970510120E+01 0.60739342119E+01 0.59013393070E+01 0.57748059116E+01 0.56915111517E+01
 0.56500913792E+01 0.56500913609E+01 0.56915111718E+01 0.57748061054E+01 0.59013396809E+01
 0.60739345367E+01 0.62970509333E+01 0.65763201669E+01 0.69175342343E+01 0.73255034399E+01
 0.72763665856E+01 0.78881815688E+01 0.85744762601E+01 0.93317967987E+01 0.10154227424E+02
 0.11031624477E+02 0.11926036696E+02 0.12775536477E+02 0.13533307697E+02 0.14171675589E+02
 0.14679958009E+02 0.15059867390E+02 0.15320020669E+02 0.15470755431E+02 0.15520018214E+02
 0.15470755218E+02 0.15320020367E+02 0.15059867185E+02 0.14679958012E+02 0.14171675719E+02
 0.13533307750E+02 0.12775536385E+02 0.11926036689E+02 0.11031624890E+02 0.10154228261E+02
 0.93317975519E+01 0.85744762790E+01 0.78881806692E+01 0.72763652857E+01 0.67404502078E+01
 0.62797598098E+01 0.58914021398E+01 0.55704974536E+01 0.53109237087E+01 0.51064247796E+01
 0.49516951363E+01 0.48430369434E+01 0.47783970679E+01 0.47569190520E+01 0.47783971015E+01
 0.48430370535E+01 0.49516952834E+01 0.51064247658E+01 0.53109233128E+01 0.55704967145E+01
 0.58914014922E+01 0.62797598275E+01 0.67404510931E+01 0.68815929389E+01 0.75517378650E+01
 0.82995806094E+01 0.91201026573E+01 0.10005077479E+02 0.10940558619E+02 0.11883548675E+02
 0.12775536488E+02 0.13572409045E+02 0.14246317081E+02 0.14783673646E+02 0.15181364012E+02
 0.15442284883E+02 0.15571128987E+02 0.15571128949E+02 0.15442284767E+02 0.15181363850E+02
 0.14783673531E+02 0.14246317088E+02 0.13572409104E+02 0.12775536385E+02 0.11883548292E+02
 0.10940558177E+02 0.10005077460E+02 0.91201033536E+01 0.82995817427E+01 0.75517387138E+01
 0.68815929289E+01 0.62915370572E+01 0.57814517390E+01 0.53487121242E+01 0.49884582910E+01
 0.46943125301E+01 0.44594535698E+01 0.42777394696E+01 0.41445121837E+01 0.40568486776E+01
 0.40132839316E+01 0.40132839340E+01 0.40568486733E+01 0.41445121261E+01 0.42777392828E+01
 0.44594532370E+01 0.46943122160E+01 0.49884583242E+01 0.53487127392E+01 0.57814527560E+01
 0.62915378697E+01 0.66087812928E+01 0.73335208538E+01 0.81381921925E+01 0.90159336822E+01
 0.99558710612E+01 0.10940558680E+02 0.11926036748E+02 0.12856106194E+02 0.13686846623E+02
 0.14388020609E+02 0.14941621294E+02 0.15339005212E+02 0.15577435144E+02 0.15656827671E+02
 0.15577435227E+02 0.15339005291E+02 0.14941621312E+02 0.14388020625E+02 0.13686846731E+02
 0.12856106344E+02 0.11926036689E+02 0.10940558177E+02 0.99558702142E+01 0.90159329987E+01
 0.81381922386E+01 0.73335217477E+01 0.66087825327E+01 0.59675553243E+01 0.54104331570E+01
 0.49351697192E+01 0.45370187933E+01 0.42094502205E+01 0.39451941119E+01 0.37373693301E+01
 0.35803801703E+01 0.34703440794E+01 0.34050072499E+01 0.33833236655E+01 0.34050072538E+01
 0.34703440374E+01 0.35803800413E+01 0.37373691767E+01 0.39451941352E+01 0.42094506223E+01
 0.45370195197E+01 0.49351703483E+01 0.54104331484E+01 0.59675544913E+01 0.64491032001E+01
 0.72263832130E+01 0.80850245840E+01 0.90159336494E+01 0.10005077486E+02 0.11031624542E+02
 0.12053099695E+02 0.13014064085E+02 0.13868776799E+02 0.14583139753E+02 0.15133999197E+02
 0.15507251823E+02 0.15695417166E+02 0.15695417222E+02 0.15507251953E+02 0.15133999316E+02
 0.14583139796E+02 0.13868776813E+02 0.13014064217E+02 0.12053100026E+02 0.11031624890E+02
 0.10005077460E+02 0.90159329987E+01 0.80850235403E+01 0.72263824160E+01 0.64491031983E+01
 0.57582141569E+01 0.51551729235E+01 0.46381959716E+01 0.42027113657E+01 0.38421119563E+01
 0.35487870209E+01 0.33152386624E+01 0.31350199527E+01 0.30032828137E+01 0.29168657887E+01
 0.28740232159E+01 0.28740232281E+01 0.29168658061E+01 0.30032828156E+01 0.31350199849E+01
 0.33152388316E+01 0.35487873647E+01 0.38421122934E+01 0.42027113380E+01 0.46381953478E+01
 0.51551719149E+01 0.57582133767E+01 0.63965801250E+01 0.72263832874E+01 0.81381922375E+01
 0.91201026268E+01 0.10154227409E+02 0.11215578713E+02 0.12264102533E+02 0.13244396404E+02
 0.14107561823E+02 0.14814975688E+02 0.15338462552E+02 0.15659428885E+02 0.15767517010E+02
 0.15659428872E+02 0.15338462545E+02 0.14814975653E+02 0.14107561689E+02 0.13244396215E+02
 0.12264102538E+02 0.11215579176E+02 0.10154228261E+02 0.91201033536E+01 0.81381922386E+01
 0.72263824160E+01 0.63965788844E+01 0.56556590943E+01 0.50061742591E+01 0.44469064276E+01
 0.39734971276E+01 0.35792961050E+01 0.32564182823E+01 0.29968522974E+01 0.27934063972E+01
 0.26403191769E+01 0.25334722527E+01 0.24702692887E+01 0.24493413734E+01 0.24702692908E+01
 0.25334722579E+01 0.26403192194E+01 0.27934065213E+01 0.29968524547E+01 0.32564182741E+01
 0.35792957176E+01 0.39734964045E+01 0.44469057932E+01 0.50061742650E+01 0.56556599323E+01
 0.64491032331E+01 0.73335209694E+01 0.82995806759E+01 0.93317968526E+01 0.10407628464E+02
 0.11496773074E+02 0.12559707581E+02 0.13542702431E+02 0.14393191659E+02 0.15068272695E+02
 0.15535851739E+02 0.15774836575E+02 0.15774836510E+02 0.15535851608E+02 0.15068272602E+02
 0.14393191592E+02 0.13542702250E+02 0.12559707214E+02 0.11496772721E+02 0.10407628524E+02
 0.93317975519E+01 0.82995817427E+01 0.73335217477E+01 0.64491031983E+01 0.56556590943E+01
 0.49572259273E+01 0.43533477788E+01 0.38399441123E+01 0.34103302573E+01 0.30563633065E+01
 0.27695756475E+01 0.25421211697E+01 0.23674054769E+01 0.22403666726E+01 0.21574692187E+01
 0.21165333387E+01 0.21165333302E+01 0.21574692003E+01 0.22403666627E+01 0.23674054812E+01
 0.25421211392E+01 0.27695754840E+01 0.30563629760E+01 0.34103299296E+01 0.38399441309E+01
 0.43533483791E+01 0.49572269227E+01 0.56556598920E+01 0.66087812959E+01 0.75517378668E+01
 0.85744763134E+01 0.96570367932E+01 0.10771448389E+02 0.11881585472E+02 0.12943960951E+02
 0.13908371250E+02 0.14720676323E+02 0.15334946758E+02 0.15717298272E+02 0.15847060611E+02
 0.15717298183E+02 0.15334946708E+02 0.14720676432E+02 0.13908371461E+02 0.12943960986E+02
 0.11881585044E+02 0.10771447551E+02 0.96570360496E+01 0.85744762790E+01 0.75517387138E+01
 0.66087825327E+01 0.57582141569E+01 0.50061742591E+01 0.43533477788E+01 0.37961013553E+01
 0.33277494075E+01 0.29398733603E+01 0.26235466508E+01 0.23703104013E+01 0.21728084418E+01
 0.20250883690E+01 0.19226566706E+01 0.18624072878E+01 0.18425233582E+01 0.18624072750E+01
 0.19226566637E+01 0.20250883689E+01 0.21728084027E+01 0.23703102717E+01 0.26235464806E+01
 0.29398733547E+01 0.33277497887E+01 0.37961020840E+01 0.43533484236E+01 0.50061742562E+01
 0.57582133144E+01 0.68815928704E+01 0.78881814824E+01 0.89704707547E+01 0.10103133839E+02
 0.11252165077E+02 0.12375485062E+02 0.13424672578E+02 0.14348033177E+02 0.15094853873E+02
 0.15620137415E+02 0.15891187316E+02 0.15891187321E+02 0.15620137437E+02 0.15094853963E+02
 0.14348033439E+02 0.13424673028E+02 0.12375485462E+02 0.11252165010E+02 0.10103133084E+02
 0.89704696176E+01 0.78881806692E+01 0.68815929289E+01 0.59675553243E+01 0.51551729235E+01
 0.44469064276E+01 0.38399441123E+01 0.33277494075E+01 0.29016336195E+01 0.25521635567E+01
 0.22702377727E+01 0.20477560527E+01 0.18779236856E+01 0.17553185664E+01 0.16758678061E+01
 0.16368335862E+01 0.16368335838E+01 0.16758678075E+01 0.17553185824E+01 0.18779237051E+01
 0.20477560557E+01 0.22702377875E+01 0.25521636821E+01 0.29016339217E+01 0.33277497486E+01
 0.38399441390E+01 0.44469058561E+01 0.51551719061E+01 0.59675544756E+01 0.72763664800E+01
 0.83518144409E+01 0.94958058405E+01 0.10676918643E+02 0.11854823450E+02 0.12981750430E+02
 0.14005166871E+02 0.14871683154E+02 0.15531911359E+02 0.15945664111E+02 0.16086634984E+02
 0.15945664172E+02 0.15531911344E+02 0.14871683039E+02 0.14005166887E+02 0.12981750860E+02
 0.11854824249E+02 0.10676919322E+02 0.94958058217E+01 0.83518135908E+01 0.72763652857E+01
 0.62915370572E+01 0.54104331570E+01 0.46381959716E+01 0.39734971276E+01 0.34103302573E+01
 0.29398733603E+01 0.25521635567E+01 0.22373729248E+01 0.19865915948E+01 0.17921697669E+01
 0.16477808295E+01 0.15483961001E+01 0.14903036574E+01 0.14712007537E+01 0.14903036610E+01
 0.15483961077E+01 0.16477808344E+01 0.17921697724E+01 0.19865916419E+01 0.22373730593E+01
 0.25521637245E+01 0.29398733580E+01 0.34103298741E+01 0.39734964123E+01 0.46381953433E+01
 0.54104331505E+01 0.62915378565E+01 0.78032536953E+01 0.89517131293E+01 0.10157720311E+02
 0.11383358474E+02 0.12582086345E+02 0.13701080402E+02 0.14684777620E+02 0.15479462028E+02
 0.16038451557E+02 0.16327160067E+02 0.16327160121E+02 0.16038451598E+02 0.15479461835E+02
 0.14684777151E+02 0.13701079948E+02 0.12582086364E+02 0.11383359188E+02 0.10157721424E+02
 0.89517139598E+01 0.78032536891E+01 0.67404502078E+01 0.57814517390E+01 0.49351697192E+01
 0.42027113657E+01 0.35792961050E+01 0.30563633065E+01 0.26235466508E+01 0.22702377727E+01
 0.19865915948E+01 0.17639961617E+01 0.15951739995E+01 0.14741416749E+01 0.13962105352E+01
 0.13580975242E+01 0.13580975252E+01 0.13962105362E+01 0.14741416659E+01 0.15951739728E+01
 0.17639961402E+01 0.19865916141E+01 0.22702377966E+01 0.26235465426E+01 0.30563629781E+01
 0.35792957266E+01 0.42027113408E+01 0.49351703290E+01 0.57814527748E+01 0.67404510222E+01
 0.84721993599E+01 0.96958237779E+01 0.10961775313E+02 0.12225634180E+02 0.13435092862E+02
 0.14533113381E+02 0.15462230423E+02 0.16169685907E+02 0.16612795708E+02 0.16763723858E+02
 0.16612795826E+02 0.16169686035E+02 0.15462230333E+02 0.14533112865E+02 0.13435092012E+02
 0.12225633493E+02 0.10961775361E+02 0.96958246833E+01 0.84722005980E+01 0.73255041801E+01
 0.62797598098E+01 0.53487121242E+01 0.45370187933E+01 0.38421119563E+01 0.32564182823E+01
 0.27695756475E+01 0.23703104013E+01 0.20477560527E+01 0.17921697669E+01 0.15951739995E+01
 0.14497515397E+01 0.13502175365E+01 0.12922957169E+01 0.12732958470E+01 0.12922957245E+01
 0.13502175349E+01 0.14497515229E+01 0.15951739838E+01 0.17921697592E+01 0.20477560130E+01
 0.23703102753E+01 0.27695754759E+01 0.32564182639E+01 0.38421123190E+01 0.45370195173E+01
 0.53487127969E+01 0.62797598622E+01 0.73255033846E+01 0.92922781932E+01 0.10591143668E+02
 0.11913016755E+02 0.13207210822E+02 0.14416183205E+02 0.15479461425E+02 0.16338662711E+02
 0.16943118141E+02 0.17255328643E+02 0.17255328662E+02 0.16943118293E+02 0.16338663095E+02
 0.15479461835E+02 0.14416183187E+02 0.13207210123E+02 0.11913015674E+02 0.10591142892E+02
 0.92922782386E+01 0.80576196055E+01 0.69175352444E+01 0.58914021398E+01 0.49884582910E+01
 0.42094502205E+01 0.35487870209E+01 0.29968522974E+01 0.25421211697E+01 0.21728084418E+01
 0.18779236856E+01 0.16477808295E+01 0.14741416749E+01 0.13502175365E+01 0.12707023793E+01
 0.12319001374E+01 0.12319001473E+01 0.12707023939E+01 0.13502175390E+01 0.14741416790E+01
 0.16477808498E+01 0.18779236938E+01 0.21728084030E+01 0.25421211352E+01 0.29968524059E+01
 0.35487873388E+01 0.42094505722E+01 0.49884583101E+01 0.58914015775E+01 0.69175342774E+01
 0.80576188145E+01 0.10272657823E+02 0.11645715643E+02 0.13018755857E+02 0.14334972605E+02
 0.15531910401E+02 0.16546222149E+02 0.17319456993E+02 0.17804083343E+02 0.17969156012E+02
 0.17804083175E+02 0.17319457011E+02 0.16546222682E+02 0.15531911344E+02 0.14334973379E+02
 0.13018755842E+02 0.11645714718E+02 0.10272656527E+02 0.89473810583E+01 0.77067891824E+01
 0.65763208334E+01 0.55704974536E+01 0.46943125301E+01 0.39451941119E+01 0.33152386624E+01
 0.27934063972E+01 0.23674054769E+01 0.20250883690E+01 0.17553185664E+01 0.15483961001E+01
 0.13962105352E+01 0.12922957169E+01 0.12319001374E+01 0.12120983775E+01 0.12319001355E+01
 0.12922957177E+01 0.13962105470E+01 0.15483961219E+01 0.17553185798E+01 0.20250883686E+01
 0.23674055093E+01 0.27934065247E+01 0.33152388380E+01 0.39451941154E+01 0.46943121234E+01
 0.55704966820E+01 0.65763201518E+01 0.77067891743E+01 0.89473819244E+01 0.11424947571E+02
 0.12871362422E+02 0.14291061736E+02 0.15620136656E+02 0.16786282557E+02 0.17722671737E+02
 0.18376754575E+02 0.18712783198E+02 0.18712783016E+02 0.18376754145E+02 0.17722671385E+02
 0.16786282689E+02 0.15620137437E+02 0.14291062834E+02 0.12871363150E+02 0.11424947425E+02
 0.10006529639E+02 0.86598281636E+01 0.74166153364E+01 0.62970510120E+01 0.53109237087E+01
 0.44594535698E+01 0.37373693301E+01 0.31350199527E+01 0.26403191769E+01 0.22403666726E+01
 0.19226566706E+01 0.16758678061E+01 0.14903036574E+01 0.13580975242E+01 0.12732958470E+01
 0.12319001473E+01 0.12319001355E+01 0.12732958256E+01 0.13580975177E+01 0.14903036688E+01
 0.16758678112E+01 0.19226566546E+01 0.22403666636E+01 0.26403192139E+01 0.31350199984E+01
 0.37373692461E+01 0.44594532537E+01 0.53109232983E+01 0.62970508965E+01 0.74166158453E+01