   2   2   0   0
  0.2234237E+02  0.3983133E-09  0.3983133E-09  0.3983133E-09  0.5000000E-15
  1.000000000000000E-004
  CAR 
 unknown system                          
     86.25125579    -13.47662485  301      3.76798784      1.00000000
    -13.477  0.0000E+00  0.0000E+00  0.0000E+00  0.0000E+00
    -13.144  0.0000E+00  0.0000E+00  0.0000E+00  0.0000E+00
    -12.812  0.0000E+00  0.0000E+00  0.0000E+00  0.0000E+00
    -12.479  0.0000E+00  0.0000E+00  0.0000E+00  0.0000E+00
    -12.147  0.0000E+00  0.0000E+00  0.0000E+00  0.0000E+00
    -11.814  0.0000E+00  0.0000E+00  0.0000E+00  0.0000E+00
    -11.482  0.0000E+00  0.0000E+00  0.0000E+00  0.0000E+00
    -11.150  0.0000E+00  0.0000E+00  0.0000E+00  0.0000E+00
    -10.817  0.0000E+00  0.0000E+00  0.0000E+00  0.0000E+00
    -10.485  0.0000E+00  0.0000E+00  0.0000E+00  0.0000E+00
    -10.152  0.0000E+00  0.0000E+00  0.0000E+00  0.0000E+00
     -9.820  0.0000E+00  0.0000E+00  0.0000E+00  0.0000E+00
     -9.488  0.0000E+00  0.0000E+00  0.0000E+00  0.0000E+00
     -9.155  0.1480E-09  0.1480E-09  0.4920E-10  0.4920E-10
     -8.823  0.5734E+00  0.5734E+00  0.1906E+00  0.1906E+00
     -8.490  0.5234E+00  0.5234E+00  0.3651E+00  0.3651E+00
     -8.158  0.3452E+00  0.3452E+00  0.4800E+00  0.4800E+00
     -7.825  0.2838E+00  0.2838E+00  0.5745E+00  0.5745E+00
     -7.493  0.2543E+00  0.2543E+00  0.6592E+00  0.6592E+00
     -7.161  0.2477E+00  0.2477E+00  0.7416E+00  0.7416E+00
     -6.828  0.3445E+00  0.3445E+00  0.8562E+00  0.8562E+00
     -6.496  0.1036E+00  0.1036E+00  0.8908E+00  0.8908E+00
     -6.163  0.8205E-01  0.8205E-01  0.9182E+00  0.9182E+00
     -5.831  0.7023E-01  0.7023E-01  0.9415E+00  0.9415E+00
     -5.498  0.7619E-01  0.7619E-01  0.9669E+00  0.9669E+00
     -5.166  0.6864E-01  0.6864E-01  0.9897E+00  0.9897E+00
     -4.834  0.9259E-01  0.9259E-01  0.1020E+01  0.1020E+01
     -4.501  0.6322E-01  0.6322E-01  0.1042E+01  0.1042E+01
     -4.169  0.6335E-01  0.6335E-01  0.1063E+01  0.1063E+01
     -3.836  0.1553E+00  0.1553E+00  0.1114E+01  0.1114E+01
     -3.504  0.2067E+00  0.2067E+00  0.1183E+01  0.1183E+01
     -3.171  0.1491E+00  0.1491E+00  0.1232E+01  0.1232E+01
     -2.839  0.1361E+00  0.1361E+00  0.1278E+01  0.1278E+01
     -2.507  0.1274E+00  0.1274E+00  0.1320E+01  0.1320E+01
     -2.174  0.1207E+00  0.1207E+00  0.1360E+01  0.1360E+01
     -1.842  0.1194E+00  0.1194E+00  0.1400E+01  0.1400E+01
     -1.509  0.1157E+00  0.1157E+00  0.1439E+01  0.1439E+01
     -1.177  0.1102E+00  0.1102E+00  0.1475E+01  0.1475E+01
     -0.844  0.1065E+00  0.1065E+00  0.1511E+01  0.1511E+01
     -0.512  0.1068E+00  0.1068E+00  0.1546E+01  0.1546E+01
     -0.180  0.1048E+00  0.1048E+00  0.1581E+01  0.1581E+01
      0.153  0.1086E+00  0.1086E+00  0.1618E+01  0.1618E+01
      0.485  0.4208E+00  0.4208E+00  0.1758E+01  0.1758E+01
      0.818  0.6836E+00  0.6836E+00  0.1985E+01  0.1985E+01
      1.150  0.4396E+00  0.4396E+00  0.2131E+01  0.2131E+01
      1.483  0.3681E+00  0.3681E+00  0.2254E+01  0.2254E+01
      1.815  0.3130E+00  0.3130E+00  0.2358E+01  0.2358E+01
      2.147  0.6876E+00  0.6876E+00  0.2587E+01  0.2587E+01
      2.480  0.1181E+01  0.1181E+01  0.2980E+01  0.2980E+01
      2.812  0.7773E+00  0.7773E+00  0.3239E+01  0.3239E+01
      3.145  0.7377E+00  0.7377E+00  0.3484E+01  0.3484E+01
      3.477  0.9641E+00  0.9641E+00  0.3805E+01  0.3805E+01
      3.810  0.5839E+00  0.5839E+00  0.4000E+01  0.4000E+01
      4.142  0.2969E+00  0.2969E+00  0.4099E+01  0.4099E+01
      4.474  0.1095E+01  0.1095E+01  0.4463E+01  0.4463E+01
      4.807  0.9350E+00  0.9350E+00  0.4774E+01  0.4774E+01
      5.139  0.6216E+00  0.6216E+00  0.4981E+01  0.4981E+01
      5.472  0.3106E+00  0.3106E+00  0.5085E+01  0.5085E+01
      5.804  0.2978E+00  0.2978E+00  0.5184E+01  0.5184E+01
      6.137  0.3830E+00  0.3830E+00  0.5311E+01  0.5311E+01
      6.469  0.1430E+01  0.1430E+01  0.5787E+01  0.5787E+01
      6.801  0.8977E+00  0.8977E+00  0.6085E+01  0.6085E+01
      7.134  0.5600E+00  0.5600E+00  0.6272E+01  0.6272E+01
      7.466  0.1449E+01  0.1449E+01  0.6754E+01  0.6754E+01
      7.799  0.6398E+00  0.6398E+00  0.6967E+01  0.6967E+01
      8.131  0.1761E+00  0.1761E+00  0.7025E+01  0.7025E+01
      8.464  0.1739E+00  0.1739E+00  0.7083E+01  0.7083E+01
      8.796  0.1733E+00  0.1733E+00  0.7141E+01  0.7141E+01
      9.128  0.1710E+00  0.1710E+00  0.7197E+01  0.7197E+01
      9.461  0.1672E+00  0.1672E+00  0.7253E+01  0.7253E+01
      9.793  0.1664E+00  0.1664E+00  0.7309E+01  0.7309E+01
     10.126  0.1631E+00  0.1631E+00  0.7363E+01  0.7363E+01
     10.458  0.3866E+00  0.3866E+00  0.7491E+01  0.7491E+01
     10.790  0.6643E+00  0.6643E+00  0.7713E+01  0.7713E+01
     11.123  0.9493E+00  0.9493E+00  0.8028E+01  0.8028E+01
     11.455  0.3983E+00  0.3983E+00  0.8161E+01  0.8161E+01
     11.788  0.5425E+00  0.5425E+00  0.8342E+01  0.8342E+01
     12.120  0.1132E+01  0.1132E+01  0.8718E+01  0.8718E+01
     12.453  0.1042E+01  0.1042E+01  0.9065E+01  0.9065E+01
     12.785  0.7901E+00  0.7901E+00  0.9329E+01  0.9329E+01
     13.117  0.8871E+00  0.8871E+00  0.9624E+01  0.9624E+01
     13.450  0.9878E+00  0.9879E+00  0.9952E+01  0.9952E+01
     13.782  0.4867E+00  0.4867E+00  0.1011E+02  0.1011E+02
     14.115  0.7337E+00  0.7337E+00  0.1036E+02  0.1036E+02
     14.447  0.6093E+00  0.6093E+00  0.1056E+02  0.1056E+02
     14.780  0.1317E+01  0.1317E+01  0.1100E+02  0.1100E+02
     15.112  0.1046E+01  0.1046E+01  0.1135E+02  0.1135E+02
     15.444  0.7588E+00  0.7588E+00  0.1160E+02  0.1160E+02
     15.777  0.6875E+00  0.6875E+00  0.1183E+02  0.1183E+02
     16.109  0.7799E+00  0.7799E+00  0.1209E+02  0.1209E+02
     16.442  0.1027E+01  0.1027E+01  0.1243E+02  0.1243E+02
     16.774  0.8086E+00  0.8086E+00  0.1270E+02  0.1270E+02
     17.107  0.5530E+00  0.5530E+00  0.1288E+02  0.1288E+02
     17.439  0.5856E+00  0.5856E+00  0.1308E+02  0.1308E+02
     17.771  0.5469E+00  0.5469E+00  0.1326E+02  0.1326E+02
     18.104  0.7607E+00  0.7607E+00  0.1352E+02  0.1352E+02
     18.436  0.6326E+00  0.6326E+00  0.1373E+02  0.1373E+02
     18.769  0.4932E+00  0.4932E+00  0.1389E+02  0.1389E+02
     19.101  0.5400E+00  0.5400E+00  0.1407E+02  0.1407E+02
     19.434  0.4984E+00  0.4984E+00  0.1424E+02  0.1424E+02
     19.766  0.6324E+00  0.6324E+00  0.1445E+02  0.1445E+02
     20.098  0.3174E+00  0.3173E+00  0.1455E+02  0.1455E+02
     20.431  0.3981E+00  0.3981E+00  0.1468E+02  0.1468E+02
     20.763  0.6672E+00  0.6672E+00  0.1491E+02  0.1491E+02
     21.096  0.6523E+00  0.6522E+00  0.1512E+02  0.1512E+02
     21.428  0.5376E+00  0.5376E+00  0.1530E+02  0.1530E+02
     21.761  0.8028E+00  0.8029E+00  0.1557E+02  0.1557E+02
     22.093  0.5493E+00  0.5493E+00  0.1575E+02  0.1575E+02
     22.425  0.5381E+00  0.5381E+00  0.1593E+02  0.1593E+02
     22.758  0.6648E+00  0.6647E+00  0.1615E+02  0.1615E+02
     23.090  0.6551E+00  0.6553E+00  0.1637E+02  0.1637E+02
     23.423  0.5183E+00  0.5181E+00  0.1654E+02  0.1654E+02
     23.755  0.5283E+00  0.5283E+00  0.1672E+02  0.1672E+02
     24.088  0.5536E+00  0.5538E+00  0.1690E+02  0.1690E+02
     24.420  0.5699E+00  0.5702E+00  0.1709E+02  0.1709E+02
     24.752  0.5212E+00  0.5214E+00  0.1727E+02  0.1727E+02
     25.085  0.5181E+00  0.5184E+00  0.1744E+02  0.1744E+02
     25.417  0.5773E+00  0.5770E+00  0.1763E+02  0.1763E+02
     25.750  0.5623E+00  0.5619E+00  0.1782E+02  0.1782E+02
     26.082  0.5318E+00  0.5322E+00  0.1799E+02  0.1799E+02
     26.415  0.4585E+00  0.4581E+00  0.1815E+02  0.1815E+02
     26.747  0.4468E+00  0.4466E+00  0.1830E+02  0.1830E+02
     27.079  0.5597E+00  0.5608E+00  0.1848E+02  0.1848E+02
     27.412  0.5249E+00  0.5247E+00  0.1866E+02  0.1866E+02
     27.744  0.5101E+00  0.5131E+00  0.1883E+02  0.1883E+02
     28.077  0.5804E+00  0.5802E+00  0.1902E+02  0.1902E+02
     28.409  0.9406E+00  0.9373E+00  0.1933E+02  0.1933E+02
     28.742  0.5764E+00  0.5758E+00  0.1952E+02  0.1952E+02
     29.074  0.1749E+01  0.1745E+01  0.2011E+02  0.2010E+02
     29.406  0.2238E+01  0.2234E+01  0.2085E+02  0.2085E+02
     29.739  0.1937E+01  0.1946E+01  0.2150E+02  0.2150E+02
     30.071  0.1265E+01  0.1275E+01  0.2192E+02  0.2192E+02
     30.404  0.2647E+01  0.2640E+01  0.2280E+02  0.2280E+02
     30.736  0.1491E+01  0.1492E+01  0.2329E+02  0.2329E+02
     31.068  0.1664E+01  0.1662E+01  0.2385E+02  0.2385E+02
     31.401  0.1196E+01  0.1198E+01  0.2424E+02  0.2425E+02
     31.733  0.1236E+01  0.1228E+01  0.2466E+02  0.2465E+02
     32.066  0.8586E+00  0.8616E+00  0.2494E+02  0.2494E+02
     32.398  0.9180E+00  0.9144E+00  0.2525E+02  0.2525E+02
     32.731  0.5851E+00  0.5824E+00  0.2544E+02  0.2544E+02
     33.063  0.6583E+00  0.6652E+00  0.2566E+02  0.2566E+02
     33.395  0.6305E+00  0.6316E+00  0.2587E+02  0.2587E+02
     33.728  0.3851E+00  0.3798E+00  0.2600E+02  0.2600E+02
     34.060  0.3792E+00  0.3792E+00  0.2612E+02  0.2612E+02
     34.393  0.3623E+00  0.3823E+00  0.2625E+02  0.2625E+02
     34.725  0.3459E+00  0.3236E+00  0.2636E+02  0.2636E+02
     35.058  0.3841E+00  0.3938E+00  0.2649E+02  0.2649E+02
     35.390  0.1289E+01  0.1279E+01  0.2692E+02  0.2691E+02
     35.722  0.8538E+00  0.8400E+00  0.2720E+02  0.2719E+02
     36.055  0.9979E+00  0.1089E+01  0.2753E+02  0.2756E+02
     36.387  0.1015E+01  0.9745E+00  0.2787E+02  0.2788E+02
     36.720  0.1397E+01  0.1376E+01  0.2834E+02  0.2834E+02
     37.052  0.1038E+01  0.1041E+01  0.2868E+02  0.2869E+02
     37.385  0.1134E+01  0.1278E+01  0.2906E+02  0.2911E+02
     37.717  0.1058E+01  0.1113E+01  0.2941E+02  0.2948E+02
     38.049  0.1006E+01  0.8829E+00  0.2975E+02  0.2977E+02
     38.382  0.8212E+00  0.8210E+00  0.3002E+02  0.3005E+02
     38.714  0.1215E+01  0.1002E+01  0.3042E+02  0.3038E+02
     39.047  0.1306E+01  0.1275E+01  0.3086E+02  0.3081E+02
     39.379  0.1741E+01  0.1930E+01  0.3144E+02  0.3145E+02
     39.712  0.1187E+01  0.1170E+01  0.3183E+02  0.3184E+02
     40.044  0.1155E+01  0.1213E+01  0.3222E+02  0.3224E+02
     40.376  0.8425E+00  0.7868E+00  0.3250E+02  0.3250E+02
     40.709  0.5914E+00  0.7299E+00  0.3269E+02  0.3275E+02
     41.041  0.8632E+00  0.7776E+00  0.3298E+02  0.3300E+02
     41.374  0.9085E+00  0.8019E+00  0.3328E+02  0.3327E+02
     41.706  0.1227E+01  0.1093E+01  0.3369E+02  0.3363E+02
     42.039  0.1475E+01  0.1253E+01  0.3418E+02  0.3405E+02
     42.371  0.1274E+01  0.1255E+01  0.3461E+02  0.3447E+02
     42.703  0.2286E+01  0.1839E+01  0.3537E+02  0.3508E+02
     43.036  0.2027E+01  0.1888E+01  0.3604E+02  0.3571E+02
     43.368  0.1192E+01  0.1755E+01  0.3644E+02  0.3630E+02
     43.701  0.2169E+01  0.1921E+01  0.3716E+02  0.3693E+02
     44.033  0.1746E+01  0.1840E+01  0.3774E+02  0.3755E+02
     44.366  0.1382E+01  0.1819E+01  0.3820E+02  0.3815E+02
     44.698  0.1210E+01  0.1164E+01  0.3860E+02  0.3854E+02
     45.030  0.1580E+01  0.1920E+01  0.3913E+02  0.3918E+02
     45.363  0.1886E+01  0.1384E+01  0.3975E+02  0.3964E+02
     45.695  0.1496E+01  0.1675E+01  0.4025E+02  0.4020E+02
     46.028  0.9286E+00  0.1015E+01  0.4056E+02  0.4053E+02
     46.360  0.9557E+00  0.9006E+00  0.4088E+02  0.4083E+02
     46.693  0.9970E+00  0.1000E+01  0.4121E+02  0.4117E+02
     47.025  0.9346E+00  0.7461E+00  0.4152E+02  0.4142E+02
     47.357  0.1221E+01  0.7661E+00  0.4193E+02  0.4167E+02
     47.690  0.7043E+00  0.7837E+00  0.4216E+02  0.4193E+02
     48.022  0.6414E+00  0.5562E+00  0.4238E+02  0.4212E+02
     48.355  0.8042E+00  0.8955E+00  0.4264E+02  0.4241E+02
     48.687  0.8085E+00  0.5846E+00  0.4291E+02  0.4261E+02
     49.020  0.7009E+00  0.4233E+00  0.4315E+02  0.4275E+02
     49.352  0.3883E+00  0.6195E+00  0.4328E+02  0.4296E+02
     49.684  0.4590E+00  0.5236E+00  0.4343E+02  0.4313E+02
     50.017  0.4847E+00  0.7001E+00  0.4359E+02  0.4336E+02
     50.349  0.8588E+00  0.1078E+01  0.4388E+02  0.4372E+02
     50.682  0.9658E+00  0.1085E+01  0.4420E+02  0.4408E+02
     51.014  0.7230E+00  0.1034E+01  0.4444E+02  0.4443E+02
     51.346  0.1086E+01  0.9798E+00  0.4480E+02  0.4475E+02
     51.679  0.8842E+00  0.9779E+00  0.4509E+02  0.4508E+02
     52.011  0.5512E+00  0.8989E+00  0.4528E+02  0.4538E+02
     52.344  0.8234E+00  0.5547E+00  0.4555E+02  0.4556E+02
     52.676  0.5154E+00  0.6210E+00  0.4572E+02  0.4577E+02
     53.009  0.8895E+00  0.5630E+00  0.4602E+02  0.4596E+02
     53.341  0.5496E+00  0.7266E+00  0.4620E+02  0.4620E+02
     53.673  0.4230E+00  0.4824E+00  0.4634E+02  0.4636E+02
     54.006  0.6007E+00  0.5290E+00  0.4654E+02  0.4653E+02
     54.338  0.3259E+00  0.4654E+00  0.4665E+02  0.4669E+02
     54.671  0.5820E+00  0.5599E+00  0.4684E+02  0.4688E+02
     55.003  0.4738E+00  0.4435E+00  0.4700E+02  0.4702E+02
     55.336  0.5798E+00  0.4721E+00  0.4719E+02  0.4718E+02
     55.668  0.6231E+00  0.3830E+00  0.4740E+02  0.4731E+02
     56.000  0.7838E+00  0.7339E+00  0.4766E+02  0.4755E+02
     56.333  0.5116E+00  0.7323E+00  0.4783E+02  0.4780E+02
     56.665  0.7241E+00  0.5929E+00  0.4807E+02  0.4799E+02
     56.998  0.7586E+00  0.3061E+00  0.4833E+02  0.4810E+02
     57.330  0.6561E+00  0.4256E+00  0.4855E+02  0.4824E+02
     57.663  0.4615E+00  0.4273E+00  0.4870E+02  0.4838E+02
     57.995  0.4611E+00  0.5462E+00  0.4885E+02  0.4856E+02
     58.327  0.5829E+00  0.8565E+00  0.4905E+02  0.4885E+02
     58.660  0.4758E+00  0.5204E+00  0.4920E+02  0.4902E+02
     58.992  0.5462E+00  0.6830E+00  0.4939E+02  0.4925E+02
     59.325  0.3572E+00  0.5168E+00  0.4951E+02  0.4942E+02
     59.657  0.3319E+00  0.3409E+00  0.4962E+02  0.4953E+02
     59.990  0.2035E+00  0.3091E+00  0.4968E+02  0.4963E+02
     60.322  0.2904E+00  0.2677E+00  0.4978E+02  0.4972E+02
     60.654  0.2451E+00  0.2446E+00  0.4986E+02  0.4980E+02
     60.987  0.3115E+00  0.3008E+00  0.4997E+02  0.4991E+02
     61.319  0.3064E+00  0.2730E+00  0.5007E+02  0.5000E+02
     61.652  0.3982E+00  0.3207E+00  0.5020E+02  0.5010E+02
     61.984  0.3023E+00  0.2338E+00  0.5030E+02  0.5018E+02
     62.317  0.3291E+00  0.2865E+00  0.5041E+02  0.5028E+02
     62.649  0.6721E+00  0.3822E+00  0.5063E+02  0.5040E+02
     62.981  0.4579E+00  0.2963E+00  0.5079E+02  0.5050E+02
     63.314  0.4903E+00  0.2253E+00  0.5095E+02  0.5058E+02
     63.646  0.3864E+00  0.2117E+00  0.5108E+02  0.5065E+02
     63.979  0.3920E+00  0.3119E+00  0.5121E+02  0.5075E+02
     64.311  0.1521E+00  0.2696E+00  0.5126E+02  0.5084E+02
     64.644  0.1744E+00  0.3699E+00  0.5132E+02  0.5096E+02
     64.976  0.3370E+00  0.2223E+00  0.5143E+02  0.5104E+02
     65.308  0.2300E+00  0.2797E+00  0.5151E+02  0.5113E+02
     65.641  0.2178E+00  0.5144E+00  0.5158E+02  0.5130E+02
     65.973  0.1934E+00  0.6277E+00  0.5164E+02  0.5151E+02
     66.306  0.2419E+00  0.6296E+00  0.5172E+02  0.5172E+02
     66.638  0.3400E+00  0.5616E+00  0.5184E+02  0.5191E+02
     66.971  0.4700E+00  0.5038E+00  0.5199E+02  0.5208E+02
     67.303  0.2128E+00  0.3340E+00  0.5206E+02  0.5219E+02
     67.635  0.1772E+00  0.3579E+00  0.5212E+02  0.5231E+02
     67.968  0.3507E+00  0.1230E+00  0.5224E+02  0.5235E+02
     68.300  0.6013E-01  0.2168E+00  0.5226E+02  0.5242E+02
     68.633  0.8923E-01  0.1865E+00  0.5229E+02  0.5248E+02
     68.965  0.8499E-01  0.2192E+00  0.5232E+02  0.5255E+02
     69.298  0.6561E-01  0.1921E+00  0.5234E+02  0.5262E+02
     69.630  0.6122E-01  0.2623E+00  0.5236E+02  0.5271E+02
     69.962  0.9551E-01  0.2978E+00  0.5239E+02  0.5280E+02
     70.295  0.5309E-01  0.3131E+00  0.5241E+02  0.5291E+02
     70.627  0.1276E+00  0.2434E+00  0.5245E+02  0.5299E+02
     70.960  0.8173E-01  0.1743E+00  0.5248E+02  0.5305E+02
     71.292  0.2988E+00  0.2009E+00  0.5258E+02  0.5311E+02
     71.624  0.4862E+00  0.7741E-01  0.5274E+02  0.5314E+02
     71.957  0.4628E+00  0.3008E-01  0.5289E+02  0.5315E+02
     72.289  0.1337E+00  0.0000E+00  0.5294E+02  0.5315E+02
     72.622  0.1204E+00  0.0000E+00  0.5298E+02  0.5315E+02
     72.954  0.2973E+00  0.0000E+00  0.5308E+02  0.5315E+02
     73.287  0.3095E+00  0.0000E+00  0.5318E+02  0.5315E+02
     73.619  0.1232E+00  0.0000E+00  0.5322E+02  0.5315E+02
     73.951  0.1179E+00  0.0000E+00  0.5326E+02  0.5315E+02
     74.284  0.1617E+00  0.1147E-02  0.5331E+02  0.5315E+02
     74.616  0.1345E+00  0.4761E+00  0.5336E+02  0.5331E+02
     74.949  0.9152E-01  0.4786E+00  0.5339E+02  0.5347E+02
     75.281  0.1940E+00  0.1792E+00  0.5345E+02  0.5353E+02
     75.614  0.3996E+00  0.9984E-02  0.5359E+02  0.5353E+02
     75.946  0.9408E-01  0.1159E+00  0.5362E+02  0.5357E+02
     76.278  0.2914E-01  0.1159E+00  0.5363E+02  0.5361E+02
     76.611  0.5675E-01  0.9670E-01  0.5365E+02  0.5364E+02
     76.943  0.5429E-01  0.6741E-01  0.5367E+02  0.5366E+02
     77.276  0.7391E-01  0.5351E-01  0.5369E+02  0.5368E+02
     77.608  0.3696E-01  0.5840E-01  0.5370E+02  0.5370E+02
     77.941  0.7744E-01  0.5989E-01  0.5373E+02  0.5372E+02
     78.273  0.4130E-01  0.6139E-01  0.5374E+02  0.5374E+02
     78.605  0.2470E-01  0.4740E-01  0.5375E+02  0.5376E+02
     78.938  0.3909E-01  0.1013E+00  0.5376E+02  0.5379E+02
     79.270  0.5187E-01  0.6347E-01  0.5378E+02  0.5381E+02
     79.603  0.3703E-01  0.1169E+00  0.5379E+02  0.5385E+02
     79.935  0.6963E-01  0.9953E-01  0.5382E+02  0.5388E+02
     80.268  0.6063E-01  0.1425E+00  0.5384E+02  0.5393E+02
     80.600  0.4018E-01  0.5973E-01  0.5385E+02  0.5395E+02
     80.932  0.7157E-01  0.1503E+00  0.5387E+02  0.5400E+02
     81.265  0.1175E+00  0.0000E+00  0.5391E+02  0.5400E+02
     81.597  0.1469E+00  0.0000E+00  0.5396E+02  0.5400E+02
     81.930  0.1169E+00  0.0000E+00  0.5400E+02  0.5400E+02
     82.262  0.0000E+00  0.0000E+00  0.5400E+02  0.5400E+02
     82.595  0.0000E+00  0.0000E+00  0.5400E+02  0.5400E+02
     82.927  0.0000E+00  0.0000E+00  0.5400E+02  0.5400E+02
     83.259  0.0000E+00  0.0000E+00  0.5400E+02  0.5400E+02
     83.592  0.0000E+00  0.0000E+00  0.5400E+02  0.5400E+02
     83.924  0.0000E+00  0.0000E+00  0.5400E+02  0.5400E+02
     84.257  0.0000E+00  0.0000E+00  0.5400E+02  0.5400E+02
     84.589  0.0000E+00  0.0000E+00  0.5400E+02  0.5400E+02
     84.922  0.0000E+00  0.0000E+00  0.5400E+02  0.5400E+02
     85.254  0.0000E+00  0.0000E+00  0.5400E+02  0.5400E+02
     85.586  0.0000E+00  0.0000E+00  0.5400E+02  0.5400E+02
     85.919  0.0000E+00  0.0000E+00  0.5400E+02  0.5400E+02
     86.251  0.0000E+00  0.0000E+00  0.5400E+02  0.5400E+02
