   2   2   0   0
  0.2234237E+02  0.3983133E-09  0.3983133E-09  0.3983133E-09  0.5000000E-15
  1.000000000000000E-004
  CAR 
 unknown system                          
     88.73311101    -13.64105673  301      3.54608459      1.00000000
    -13.641  0.0000E+00  0.0000E+00
    -13.300  0.0000E+00  0.0000E+00
    -12.959  0.0000E+00  0.0000E+00
    -12.617  0.0000E+00  0.0000E+00
    -12.276  0.0000E+00  0.0000E+00
    -11.935  0.0000E+00  0.0000E+00
    -11.594  0.0000E+00  0.0000E+00
    -11.252  0.0000E+00  0.0000E+00
    -10.911  0.0000E+00  0.0000E+00
    -10.570  0.0000E+00  0.0000E+00
    -10.229  0.0000E+00  0.0000E+00
     -9.887  0.0000E+00  0.0000E+00
     -9.546 -0.4022E-54 -0.1372E-54
     -9.205 -0.1991E-08 -0.6794E-09
     -8.864  0.1145E+01  0.3909E+00
     -8.522  0.1033E+01  0.7400E+00
     -8.181  0.6857E+00  0.9728E+00
     -7.840  0.5680E+00  0.1166E+01
     -7.499  0.5036E+00  0.1337E+01
     -7.157  0.5120E+00  0.1511E+01
     -6.816  0.6740E+00  0.1740E+01
     -6.475  0.1656E+00  0.1795E+01
     -6.134  0.1382E+00  0.1843E+01
     -5.792  0.1689E+00  0.1900E+01
     -5.451  0.1195E+00  0.1941E+01
     -5.110  0.1968E+00  0.2008E+01
     -4.769  0.1538E+00  0.2060E+01
     -4.427  0.1159E+00  0.2100E+01
     -4.086  0.1170E+00  0.2139E+01
     -3.745  0.4434E+00  0.2291E+01
     -3.404  0.3346E+00  0.2404E+01
     -3.062  0.2828E+00  0.2500E+01
     -2.721  0.2849E+00  0.2597E+01
     -2.380  0.2421E+00  0.2680E+01
     -2.039  0.2355E+00  0.2759E+01
     -1.697  0.2371E+00  0.2840E+01
     -1.356  0.2365E+00  0.2920E+01
     -1.015  0.2260E+00  0.2997E+01
     -0.674  0.2093E+00  0.3068E+01
     -0.332  0.2113E+00  0.3140E+01
      0.009  0.1999E+00  0.3208E+01
      0.350  0.1940E+00  0.3274E+01
      0.691  0.1771E+01  0.3878E+01
      1.033  0.9288E+00  0.4193E+01
      1.374  0.7171E+00  0.4437E+01
      1.715  0.7047E+00  0.4677E+01
      2.056  0.6796E+00  0.4909E+01
      2.398  0.2785E+01  0.5859E+01
      2.739  0.1583E+01  0.6398E+01
      3.080  0.1527E+01  0.6918E+01
      3.421  0.1757E+01  0.7516E+01
      3.763  0.1424E+01  0.8000E+01
      4.104  0.6197E+00  0.8211E+01
      4.445  0.2114E+01  0.8933E+01
      4.786  0.1872E+01  0.9568E+01
      5.128  0.1180E+01  0.9970E+01
      5.469  0.6147E+00  0.1018E+02
      5.810  0.6062E+00  0.1039E+02
      6.151  0.9043E+00  0.1069E+02
      6.493  0.2828E+01  0.1166E+02
      6.834  0.1671E+01  0.1222E+02
      7.175  0.1197E+01  0.1263E+02
      7.516  0.3650E+01  0.1388E+02
      7.858  0.3569E+00  0.1398E+02
      8.199  0.3481E+00  0.1410E+02
      8.540  0.3424E+00  0.1422E+02
      8.881  0.3311E+00  0.1433E+02
      9.223  0.3278E+00  0.1444E+02
      9.564  0.3266E+00  0.1455E+02
      9.905  0.3133E+00  0.1466E+02
     10.246  0.3111E+00  0.1476E+02
     10.587  0.1193E+01  0.1517E+02
     10.929  0.1525E+01  0.1569E+02
     11.270  0.1496E+01  0.1620E+02
     11.611  0.7940E+00  0.1647E+02
     11.952  0.1691E+01  0.1704E+02
     12.294  0.2447E+01  0.1788E+02
     12.635  0.1696E+01  0.1845E+02
     12.976  0.1619E+01  0.1900E+02
     13.317  0.2347E+01  0.1980E+02
     13.659  0.9475E+00  0.2012E+02
     14.000  0.1323E+01  0.2058E+02
     14.341  0.1374E+01  0.2104E+02
     14.682  0.2333E+01  0.2184E+02
     15.024  0.2258E+01  0.2260E+02
     15.365  0.1507E+01  0.2311E+02
     15.706  0.1393E+01  0.2358E+02
     16.047  0.1489E+01  0.2409E+02
     16.389  0.2098E+01  0.2481E+02
     16.730  0.1722E+01  0.2539E+02
     17.071  0.1074E+01  0.2576E+02
     17.412  0.1188E+01  0.2616E+02
     17.754  0.1129E+01  0.2654E+02
     18.095  0.1514E+01  0.2706E+02
     18.436  0.1243E+01  0.2748E+02
     18.777  0.1002E+01  0.2782E+02
     19.119  0.1090E+01  0.2819E+02
     19.460  0.1100E+01  0.2857E+02
     19.801  0.1061E+01  0.2893E+02
     20.142  0.6537E+00  0.2915E+02
     20.484  0.9350E+00  0.2947E+02
     20.825  0.1539E+01  0.2999E+02
     21.166  0.1007E+01  0.3033E+02
     21.507  0.1187E+01  0.3074E+02
     21.849  0.1483E+01  0.3124E+02
     22.190  0.1072E+01  0.3161E+02
     22.531  0.1367E+01  0.3207E+02
     22.872  0.1349E+01  0.3253E+02
     23.214  0.1113E+01  0.3291E+02
     23.555  0.1098E+01  0.3329E+02
     23.896  0.1127E+01  0.3367E+02
     24.237  0.1142E+01  0.3406E+02
     24.579  0.1117E+01  0.3443E+02
     24.920  0.1065E+01  0.3480E+02
     25.261  0.9655E+00  0.3512E+02
     25.602  0.1190E+01  0.3553E+02
     25.944  0.1127E+01  0.3591E+02
     26.285  0.9010E+00  0.3622E+02
     26.626  0.9533E+00  0.3654E+02
     26.967  0.9758E+00  0.3687E+02
     27.309  0.1074E+01  0.3724E+02
     27.650  0.1104E+01  0.3761E+02
     27.991  0.1146E+01  0.3800E+02
     28.332  0.1793E+01  0.3861E+02
     28.674  0.1207E+01  0.3902E+02
     29.015  0.3242E+01  0.4013E+02
     29.356  0.4363E+01  0.4161E+02
     29.697  0.4028E+01  0.4298E+02
     30.039  0.2573E+01  0.4385E+02
     30.380  0.5203E+01  0.4563E+02
     30.721  0.3187E+01  0.4671E+02
     31.062  0.3138E+01  0.4778E+02
     31.404  0.2529E+01  0.4863E+02
     31.745  0.2309E+01  0.4942E+02
     32.086  0.1707E+01  0.5000E+02
     32.427  0.1677E+01  0.5057E+02
     32.769  0.1169E+01  0.5097E+02
     33.110  0.1427E+01  0.5145E+02
     33.451  0.1142E+01  0.5184E+02
     33.792  0.7462E+00  0.5209E+02
     34.134  0.7637E+00  0.5235E+02
     34.475  0.7266E+00  0.5260E+02
     34.816  0.7432E+00  0.5285E+02
     35.157  0.1329E+01  0.5330E+02
     35.499  0.2411E+01  0.5412E+02
     35.840  0.1571E+01  0.5466E+02
     36.181  0.2683E+01  0.5557E+02
     36.522  0.1539E+01  0.5610E+02
     36.864  0.2864E+01  0.5707E+02
     37.205  0.2157E+01  0.5781E+02
     37.546  0.2764E+01  0.5874E+02
     37.887  0.1973E+01  0.5942E+02
     38.229  0.1748E+01  0.6001E+02
     38.570  0.1819E+01  0.6063E+02
     38.911  0.2108E+01  0.6135E+02
     39.252  0.4359E+01  0.6283E+02
     39.594  0.2607E+01  0.6372E+02
     39.935  0.2446E+01  0.6455E+02
     40.276  0.1843E+01  0.6518E+02
     40.617  0.1781E+01  0.6578E+02
     40.958  0.2200E+01  0.6653E+02
     41.300  0.2238E+01  0.6729E+02
     41.641  0.2319E+01  0.6808E+02
     41.982  0.3427E+01  0.6925E+02
     42.323  0.2466E+01  0.7009E+02
     42.665  0.3571E+01  0.7130E+02
     43.006  0.3349E+01  0.7244E+02
     43.347  0.2349E+01  0.7324E+02
     43.688  0.3970E+01  0.7459E+02
     44.030  0.2820E+01  0.7555E+02
     44.371  0.3134E+01  0.7662E+02
     44.712  0.3673E+01  0.7787E+02
     45.053  0.4316E+01  0.7933E+02
     45.395  0.2362E+01  0.8014E+02
     45.736  0.2806E+01  0.8109E+02
     46.077  0.1897E+01  0.8174E+02
     46.418  0.1912E+01  0.8239E+02
     46.760  0.1182E+01  0.8279E+02
     47.101  0.1404E+01  0.8327E+02
     47.442  0.1960E+01  0.8394E+02
     47.783  0.1904E+01  0.8458E+02
     48.125  0.2146E+01  0.8531E+02
     48.466  0.1666E+01  0.8588E+02
     48.807  0.1969E+01  0.8655E+02
     49.148  0.1448E+01  0.8704E+02
     49.490  0.1556E+01  0.8757E+02
     49.831  0.2214E+01  0.8832E+02
     50.172  0.1731E+01  0.8891E+02
     50.513  0.2335E+01  0.8971E+02
     50.855  0.1508E+01  0.9022E+02
     51.196  0.2371E+01  0.9103E+02
     51.537  0.1197E+01  0.9143E+02
     51.878  0.1382E+01  0.9190E+02
     52.220  0.1385E+01  0.9238E+02
     52.561  0.1100E+01  0.9275E+02
     52.902  0.1426E+01  0.9324E+02
     53.243  0.1129E+01  0.9362E+02
     53.585  0.1391E+01  0.9409E+02
     53.926  0.1204E+01  0.9450E+02
     54.267  0.1870E+01  0.9514E+02
     54.608  0.1407E+01  0.9562E+02
     54.950  0.1224E+01  0.9603E+02
     55.291  0.7302E+00  0.9628E+02
     55.632  0.8888E+00  0.9658E+02
     55.973  0.5832E+00  0.9678E+02
     56.315  0.1146E+01  0.9717E+02
     56.656  0.1228E+01  0.9759E+02
     56.997  0.4274E+00  0.9773E+02
     57.338  0.7954E+00  0.9801E+02
     57.680  0.1005E+01  0.9835E+02
     58.021  0.1059E+01  0.9871E+02
     58.362  0.1238E+01  0.9913E+02
     58.703  0.1227E+01  0.9954E+02
     59.045  0.9086E+00  0.9985E+02
     59.386  0.1016E+01  0.1002E+03
     59.727  0.1194E+01  0.1006E+03
     60.068  0.7598E+00  0.1009E+03
     60.410  0.6800E+00  0.1011E+03
     60.751  0.2041E+00  0.1012E+03
     61.092  0.4118E+00  0.1013E+03
     61.433  0.5456E+00  0.1015E+03
     61.775  0.4809E+00  0.1017E+03
     62.116  0.9760E+00  0.1020E+03
     62.457  0.7245E+00  0.1022E+03
     62.798  0.6541E+00  0.1025E+03
     63.140  0.7117E+00  0.1027E+03
     63.481  0.6275E+00  0.1029E+03
     63.822  0.3907E+00  0.1030E+03
     64.163  0.4634E+00  0.1032E+03
     64.505  0.8559E+00  0.1035E+03
     64.846  0.1035E+01  0.1038E+03
     65.187  0.1045E+01  0.1042E+03
     65.528  0.1653E+01  0.1048E+03
     65.870  0.1403E+01  0.1052E+03
     66.211  0.1712E+01  0.1058E+03
     66.552  0.8995E+00  0.1061E+03
     66.893  0.1140E+01  0.1065E+03
     67.235  0.7158E+00  0.1068E+03
     67.576  0.4182E+00  0.1069E+03
     67.917  0.3763E+00  0.1070E+03
     68.258  0.8051E+00  0.1073E+03
     68.600  0.5231E+00  0.1075E+03
     68.941  0.4439E+00  0.1076E+03
     69.282  0.5697E+00  0.1078E+03
     69.623  0.5844E+00  0.1080E+03
     69.965  0.5853E+00  0.1082E+03
     70.306  0.9209E-01  0.1083E+03
     70.647  0.7552E-01  0.1083E+03
     70.988  0.1173E+00  0.1083E+03
     71.330  0.6064E-01  0.1083E+03
     71.671  0.3580E-01  0.1084E+03
     72.012  0.3038E-01  0.1084E+03
     72.353  0.5093E-01  0.1084E+03
     72.694  0.5872E-01  0.1084E+03
     73.036  0.5802E-01  0.1084E+03
     73.377  0.1764E+00  0.1085E+03
     73.718  0.1322E+00  0.1085E+03
     74.059  0.2341E+00  0.1086E+03
     74.401  0.1605E+00  0.1087E+03
     74.742  0.1767E+00  0.1087E+03
     75.083  0.1179E+00  0.1088E+03
     75.424  0.5870E+00  0.1090E+03
     75.766  0.6911E+00  0.1092E+03
     76.107  0.8672E+00  0.1095E+03
     76.448  0.4707E+00  0.1097E+03
     76.789  0.2038E+00  0.1097E+03
     77.131  0.1483E+00  0.1098E+03
     77.472  0.1141E+00  0.1098E+03
     77.813  0.1452E+00  0.1099E+03
     78.154  0.9686E-01  0.1099E+03
     78.496  0.1683E+00  0.1099E+03
     78.837  0.2658E+00  0.1100E+03
     79.178  0.1260E+00  0.1101E+03
     79.519  0.3264E+00  0.1102E+03
     79.861  0.1380E+00  0.1102E+03
     80.202  0.3530E+00  0.1104E+03
     80.543  0.5352E+00  0.1105E+03
     80.884  0.6376E+00  0.1108E+03
     81.226  0.2952E+00  0.1109E+03
     81.567  0.5570E+00  0.1111E+03
     81.908  0.4161E+00  0.1112E+03
     82.249  0.4526E+00  0.1113E+03
     82.591  0.4572E+00  0.1115E+03
     82.932  0.3799E+00  0.1116E+03
     83.273  0.2173E+00  0.1117E+03
     83.614  0.2864E+00  0.1118E+03
     83.956  0.2943E+00  0.1119E+03
     84.297  0.2899E+00  0.1120E+03
     84.638  0.0000E+00  0.1120E+03
     84.979  0.0000E+00  0.1120E+03
     85.321  0.0000E+00  0.1120E+03
     85.662  0.0000E+00  0.1120E+03
     86.003  0.0000E+00  0.1120E+03
     86.344  0.0000E+00  0.1120E+03
     86.686  0.0000E+00  0.1120E+03
     87.027  0.0000E+00  0.1120E+03
     87.368  0.0000E+00  0.1120E+03
     87.709  0.0000E+00  0.1120E+03
     88.051  0.0000E+00  0.1120E+03
     88.392  0.0000E+00  0.1120E+03
     88.733  0.0000E+00  0.1120E+03
