   2   2   0   0
  0.2234237E+02  0.3983133E-09  0.3983133E-09  0.3983133E-09  0.5000000E-15
  1.000000000000000E-004
  CAR 
 unknown system                          
     87.69685365    -13.56397773  301      3.72250844      1.00000000
    -13.564  0.0000E+00  0.0000E+00
    -13.226  0.0000E+00  0.0000E+00
    -12.889  0.0000E+00  0.0000E+00
    -12.551  0.0000E+00  0.0000E+00
    -12.214  0.0000E+00  0.0000E+00
    -11.876  0.0000E+00  0.0000E+00
    -11.539  0.0000E+00  0.0000E+00
    -11.201  0.0000E+00  0.0000E+00
    -10.864  0.0000E+00  0.0000E+00
    -10.526  0.0000E+00  0.0000E+00
    -10.189  0.0000E+00  0.0000E+00
     -9.851  0.0000E+00  0.0000E+00
     -9.514 -0.5979E-53 -0.2018E-53
     -9.176 -0.2994E-08 -0.1011E-08
     -8.838  0.1148E+01  0.3874E+00
     -8.501  0.1030E+01  0.7332E+00
     -8.163  0.6845E+00  0.9636E+00
     -7.826  0.5645E+00  0.1154E+01
     -7.488  0.5026E+00  0.1323E+01
     -7.151  0.5006E+00  0.1491E+01
     -6.813  0.7098E+00  0.1730E+01
     -6.476  0.1562E+00  0.1782E+01
     -6.138  0.1728E+00  0.1840E+01
     -5.801  0.1361E+00  0.1886E+01
     -5.463  0.1599E+00  0.1940E+01
     -5.126  0.1152E+00  0.1979E+01
     -4.788  0.1893E+00  0.2043E+01
     -4.451  0.1396E+00  0.2090E+01
     -4.113  0.1341E+00  0.2135E+01
     -3.775  0.3375E+00  0.2249E+01
     -3.438  0.3887E+00  0.2379E+01
     -3.100  0.2924E+00  0.2477E+01
     -2.763  0.2836E+00  0.2573E+01
     -2.425  0.2213E+00  0.2647E+01
     -2.088  0.2233E+00  0.2722E+01
     -1.750  0.2323E+00  0.2801E+01
     -1.413  0.2351E+00  0.2880E+01
     -1.075  0.2367E+00  0.2960E+01
     -0.738  0.2359E+00  0.3039E+01
     -0.400  0.2086E+00  0.3109E+01
     -0.063  0.1959E+00  0.3175E+01
      0.275  0.1938E+00  0.3241E+01
      0.613  0.8599E+00  0.3531E+01
      0.950  0.1382E+01  0.3997E+01
      1.288  0.8093E+00  0.4269E+01
      1.625  0.7497E+00  0.4521E+01
      1.963  0.7008E+00  0.4757E+01
      2.300  0.1416E+01  0.5235E+01
      2.638  0.2252E+01  0.5994E+01
      2.975  0.1593E+01  0.6531E+01
      3.313  0.1480E+01  0.7030E+01
      3.650  0.2015E+01  0.7708E+01
      3.988  0.8658E+00  0.8000E+01
      4.325  0.1307E+01  0.8441E+01
      4.663  0.2366E+01  0.9238E+01
      5.001  0.1803E+01  0.9845E+01
      5.338  0.6443E+00  0.1006E+02
      5.676  0.5974E+00  0.1026E+02
      6.013  0.5930E+00  0.1046E+02
      6.351  0.1941E+01  0.1111E+02
      6.688  0.2079E+01  0.1181E+02
      7.026  0.1480E+01  0.1231E+02
      7.363  0.1218E+01  0.1272E+02
      7.701  0.3382E+01  0.1386E+02
      8.038  0.3555E+00  0.1398E+02
      8.376  0.3580E+00  0.1410E+02
      8.713  0.3602E+00  0.1422E+02
      9.051  0.3582E+00  0.1434E+02
      9.388  0.3385E+00  0.1445E+02
      9.726  0.3281E+00  0.1456E+02
     10.064  0.3184E+00  0.1467E+02
     10.401  0.6373E+00  0.1489E+02
     10.739  0.1265E+01  0.1531E+02
     11.076  0.1952E+01  0.1597E+02
     11.414  0.8463E+00  0.1625E+02
     11.751  0.9435E+00  0.1657E+02
     12.089  0.2264E+01  0.1733E+02
     12.426  0.2121E+01  0.1805E+02
     12.764  0.1464E+01  0.1854E+02
     13.101  0.1682E+01  0.1910E+02
     13.439  0.2296E+01  0.1988E+02
     13.776  0.9327E+00  0.2019E+02
     14.114  0.1459E+01  0.2068E+02
     14.452  0.1295E+01  0.2112E+02
     14.789  0.2603E+01  0.2200E+02
     15.127  0.2050E+01  0.2269E+02
     15.464  0.1491E+01  0.2319E+02
     15.802  0.1402E+01  0.2366E+02
     16.139  0.1558E+01  0.2419E+02
     16.477  0.2043E+01  0.2487E+02
     16.814  0.1676E+01  0.2544E+02
     17.152  0.1134E+01  0.2582E+02
     17.489  0.1060E+01  0.2617E+02
     17.827  0.1405E+01  0.2665E+02
     18.164  0.1414E+01  0.2712E+02
     18.502  0.1183E+01  0.2752E+02
     18.839  0.9880E+00  0.2786E+02
     19.177  0.9771E+00  0.2818E+02
     19.515  0.1255E+01  0.2861E+02
     19.852  0.9580E+00  0.2893E+02
     20.190  0.6988E+00  0.2917E+02
     20.527  0.9839E+00  0.2950E+02
     20.865  0.1422E+01  0.2998E+02
     21.202  0.1104E+01  0.3034E+02
     21.540  0.1164E+01  0.3074E+02
     21.877  0.1471E+01  0.3123E+02
     22.215  0.1068E+01  0.3159E+02
     22.552  0.1276E+01  0.3202E+02
     22.890  0.1417E+01  0.3250E+02
     23.227  0.1112E+01  0.3287E+02
     23.565  0.1125E+01  0.3325E+02
     23.903  0.1113E+01  0.3363E+02
     24.240  0.1185E+01  0.3403E+02
     24.578  0.1020E+01  0.3437E+02
     24.915  0.1078E+01  0.3473E+02
     25.253  0.1109E+01  0.3510E+02
     25.590  0.1096E+01  0.3547E+02
     25.928  0.1102E+01  0.3584E+02
     26.265  0.8976E+00  0.3615E+02
     26.603  0.9133E+00  0.3645E+02
     26.940  0.1028E+01  0.3680E+02
     27.278  0.1097E+01  0.3717E+02
     27.615  0.1032E+01  0.3752E+02
     27.953  0.1238E+01  0.3793E+02
     28.290  0.1662E+01  0.3849E+02
     28.628  0.1332E+01  0.3894E+02
     28.966  0.2729E+01  0.3986E+02
     29.303  0.3031E+01  0.4088E+02
     29.641  0.5149E+01  0.4262E+02
     29.978  0.2607E+01  0.4350E+02
     30.316  0.5643E+01  0.4540E+02
     30.653  0.2407E+01  0.4620E+02
     30.991  0.3923E+01  0.4752E+02
     31.328  0.2441E+01  0.4834E+02
     31.666  0.2471E+01  0.4917E+02
     32.003  0.1885E+01  0.4981E+02
     32.341  0.1944E+01  0.5046E+02
     32.678  0.1154E+01  0.5085E+02
     33.016  0.1261E+01  0.5127E+02
     33.354  0.1391E+01  0.5174E+02
     33.691  0.7887E+00  0.5200E+02
     34.029  0.7261E+00  0.5225E+02
     34.366  0.7574E+00  0.5250E+02
     34.704  0.6504E+00  0.5272E+02
     35.041  0.7867E+00  0.5299E+02
     35.379  0.2557E+01  0.5385E+02
     35.716  0.1781E+01  0.5445E+02
     36.054  0.2375E+01  0.5525E+02
     36.391  0.1905E+01  0.5589E+02
     36.729  0.2819E+01  0.5684E+02
     37.066  0.2053E+01  0.5753E+02
     37.404  0.2660E+01  0.5842E+02
     37.742  0.2328E+01  0.5920E+02
     38.079  0.1620E+01  0.5975E+02
     38.417  0.1733E+01  0.6033E+02
     38.754  0.2039E+01  0.6102E+02
     39.092  0.2896E+01  0.6199E+02
     39.429  0.4011E+01  0.6334E+02
     39.767  0.2349E+01  0.6414E+02
     40.104  0.2060E+01  0.6483E+02
     40.442  0.2095E+01  0.6553E+02
     40.779  0.1958E+01  0.6620E+02
     41.117  0.2093E+01  0.6690E+02
     41.454  0.2557E+01  0.6776E+02
     41.792  0.2945E+01  0.6875E+02
     42.129  0.3273E+01  0.6985E+02
     42.467  0.1595E+01  0.7039E+02
     42.805  0.4557E+01  0.7193E+02
     43.142  0.2757E+01  0.7286E+02
     43.480  0.2449E+01  0.7368E+02
     43.817  0.4257E+01  0.7512E+02
     44.155  0.2829E+01  0.7607E+02
     44.492  0.4042E+01  0.7743E+02
     44.830  0.3681E+01  0.7867E+02
     45.167  0.3000E+01  0.7968E+02
     45.505  0.3075E+01  0.8072E+02
     45.842  0.2389E+01  0.8152E+02
     46.180  0.2107E+01  0.8223E+02
     46.517  0.1215E+01  0.8264E+02
     46.855  0.1341E+01  0.8309E+02
     47.193  0.2331E+01  0.8387E+02
     47.530  0.2116E+01  0.8459E+02
     47.868  0.1744E+01  0.8517E+02
     48.205  0.1708E+01  0.8575E+02
     48.543  0.2109E+01  0.8646E+02
     48.880  0.1385E+01  0.8693E+02
     49.218  0.1366E+01  0.8739E+02
     49.555  0.1700E+01  0.8796E+02
     49.893  0.1787E+01  0.8856E+02
     50.230  0.2038E+01  0.8925E+02
     50.568  0.2051E+01  0.8993E+02
     50.905  0.2652E+01  0.9083E+02
     51.243  0.1595E+01  0.9136E+02
     51.580  0.1198E+01  0.9176E+02
     51.918  0.1369E+01  0.9223E+02
     52.256  0.1250E+01  0.9265E+02
     52.593  0.1492E+01  0.9315E+02
     52.931  0.1881E+01  0.9378E+02
     53.268  0.1709E+01  0.9436E+02
     53.606  0.1863E+01  0.9499E+02
     53.943  0.1126E+01  0.9537E+02
     54.281  0.7407E+00  0.9562E+02
     54.618  0.7593E+00  0.9587E+02
     54.956  0.8891E+00  0.9617E+02
     55.293  0.8915E+00  0.9647E+02
     55.631  0.7749E+00  0.9673E+02
     55.968  0.8583E+00  0.9702E+02
     56.306  0.9703E+00  0.9734E+02
     56.644  0.9662E+00  0.9767E+02
     56.981  0.9284E+00  0.9798E+02
     57.319  0.1329E+01  0.9843E+02
     57.656  0.1420E+01  0.9891E+02
     57.994  0.1174E+01  0.9930E+02
     58.331  0.9926E+00  0.9963E+02
     58.669  0.1013E+01  0.9998E+02
     59.006  0.1131E+01  0.1004E+03
     59.344  0.9407E+00  0.1007E+03
     59.681  0.7164E+00  0.1009E+03
     60.019  0.3831E+00  0.1010E+03
     60.356  0.3544E+00  0.1012E+03
     60.694  0.3766E+00  0.1013E+03
     61.032  0.5390E+00  0.1015E+03
     61.369  0.1066E+01  0.1018E+03
     61.707  0.7614E+00  0.1021E+03
     62.044  0.5550E+00  0.1023E+03
     62.382  0.6217E+00  0.1025E+03
     62.719  0.5566E+00  0.1027E+03
     63.057  0.1036E+01  0.1030E+03
     63.394  0.5369E+00  0.1032E+03
     63.732  0.5159E+00  0.1034E+03
     64.069  0.1776E+01  0.1040E+03
     64.407  0.1381E+01  0.1044E+03
     64.744  0.1020E+01  0.1048E+03
     65.082  0.1378E+01  0.1052E+03
     65.419  0.7901E+00  0.1055E+03
     65.757  0.7055E+00  0.1057E+03
     66.095  0.9278E+00  0.1061E+03
     66.432  0.1011E+01  0.1064E+03
     66.770  0.1200E+01  0.1068E+03
     67.107  0.3452E+00  0.1069E+03
     67.445  0.3371E+00  0.1070E+03
     67.782  0.7421E+00  0.1073E+03
     68.120  0.5501E+00  0.1075E+03
     68.457  0.4330E+00  0.1076E+03
     68.795  0.5899E+00  0.1078E+03
     69.132  0.7123E+00  0.1080E+03
     69.470  0.5065E+00  0.1082E+03
     69.807  0.1189E+00  0.1083E+03
     70.145  0.8506E-01  0.1083E+03
     70.483  0.3367E-01  0.1083E+03
     70.820  0.1197E+00  0.1083E+03
     71.158  0.6089E-01  0.1084E+03
     71.495  0.5744E-01  0.1084E+03
     71.833  0.5902E-01  0.1084E+03
     72.170  0.5872E-01  0.1084E+03
     72.508  0.2943E+00  0.1085E+03
     72.845  0.2434E+00  0.1086E+03
     73.183  0.1175E+00  0.1086E+03
     73.520  0.1681E+00  0.1087E+03
     73.858  0.2476E+00  0.1088E+03
     74.195  0.1015E+00  0.1088E+03
     74.533  0.1832E-01  0.1088E+03
     74.870  0.2376E+00  0.1089E+03
     75.208  0.8251E+00  0.1092E+03
     75.546  0.1103E+01  0.1096E+03
     75.883  0.5966E+00  0.1098E+03
     76.221  0.2098E+00  0.1098E+03
     76.558  0.9046E-01  0.1099E+03
     76.896  0.2625E+00  0.1099E+03
     77.233  0.1207E+00  0.1100E+03
     77.571  0.8985E-01  0.1100E+03
     77.908  0.1420E+00  0.1101E+03
     78.246  0.3695E+00  0.1102E+03
     78.583  0.2855E+00  0.1103E+03
     78.921  0.3805E+00  0.1104E+03
     79.258  0.1509E+00  0.1105E+03
     79.596  0.4534E+00  0.1106E+03
     79.934  0.4360E+00  0.1108E+03
     80.271  0.5951E+00  0.1110E+03
     80.609  0.7091E+00  0.1112E+03
     80.946  0.5567E+00  0.1114E+03
     81.284  0.2025E+00  0.1115E+03
     81.621  0.2230E+00  0.1115E+03
     81.959  0.3189E+00  0.1116E+03
     82.296  0.1159E+00  0.1117E+03
     82.634  0.3124E+00  0.1118E+03
     82.971  0.3354E+00  0.1119E+03
     83.309  0.3179E+00  0.1120E+03
     83.646  0.0000E+00  0.1120E+03
     83.984  0.0000E+00  0.1120E+03
     84.321  0.0000E+00  0.1120E+03
     84.659  0.0000E+00  0.1120E+03
     84.997  0.0000E+00  0.1120E+03
     85.334  0.0000E+00  0.1120E+03
     85.672  0.0000E+00  0.1120E+03
     86.009  0.0000E+00  0.1120E+03
     86.347  0.0000E+00  0.1120E+03
     86.684  0.0000E+00  0.1120E+03
     87.022  0.0000E+00  0.1120E+03
     87.359  0.0000E+00  0.1120E+03
     87.697  0.0000E+00  0.1120E+03
