    2    2    1    2
  0.2234237E+02  0.3983132E-09  0.3983132E-09  0.3983132E-09  0.5000000E-15
  1.000000000000000E-004
  CAR 
 unknown system                          
      8    100     54
 
  0.5000000E+00  0.5000000E+00  0.5000000E+00  0.1000000E-01
    1       -6.849530     -6.849529   1.000000   1.000000
    2       -3.894355     -3.894354   1.000000   1.000000
    3        2.109860      2.109861   1.000000   1.000000
    4        2.109860      2.109861   1.000000   1.000000
    5        4.086266      4.086266   0.000000   0.000000
    6        7.446401      7.446402   0.000000   0.000000
    7        7.446401      7.446402   0.000000   0.000000
    8       10.938925     10.938924   0.000000   0.000000
    9       14.330368     14.330367   0.000000   0.000000
   10       14.880074     14.880074   0.000000   0.000000
   11       14.953151     14.953150   0.000000   0.000000
   12       14.953151     14.953150   0.000000   0.000000
   13       16.076621     16.076622   0.000000   0.000000
   14       16.076621     16.076622   0.000000   0.000000
   15       22.608491     22.608491   0.000000   0.000000
   16       23.885544     23.885543   0.000000   0.000000
   17       25.329340     25.329340   0.000000   0.000000
   18       25.329340     25.329340   0.000000   0.000000
   19       25.501828     25.501828   0.000000   0.000000
   20       25.501828     25.501828   0.000000   0.000000
   21       28.817497     28.817495   0.000000   0.000000
   22       29.994402     29.994400   0.000000   0.000000
   23       30.290742     30.290743   0.000000   0.000000
   24       30.290742     30.290743   0.000000   0.000000
   25       30.804327     30.804327   0.000000   0.000000
   26       30.804327     30.804327   0.000000   0.000000
   27       31.713509     31.713510   0.000000   0.000000
   28       35.133841     35.133841   0.000000   0.000000
   29       35.133845     35.133844   0.000000   0.000000
   30       35.327083     35.327082   0.000000   0.000000
   31       35.327083     35.327082   0.000000   0.000000
   32       36.159863     36.159838   0.000000   0.000000
   33       37.261891     37.261892   0.000000   0.000000
   34       37.408116     37.408120   0.000000   0.000000
   35       42.524177     42.524186   0.000000   0.000000
   36       42.528225     42.527873   0.000000   0.000000
   37       42.785881     42.785893   0.000000   0.000000
   38       43.722379     43.722201   0.000000   0.000000
   39       43.724414     43.723808   0.000000   0.000000
   40       44.732440     44.732175   0.000000   0.000000
   41       48.336181     48.330935   0.000000   0.000000
   42       48.336279     48.334203   0.000000   0.000000
   43       50.745225     50.728272   0.000000   0.000000
   44       50.905934     50.879492   0.000000   0.000000
   45       52.729800     52.539612   0.000000   0.000000
   46       54.391547     54.494113   0.000000   0.000000
   47       54.498411     54.544273   0.000000   0.000000
   48       58.697121     58.744583   0.000000   0.000000
   49       58.896568     59.045943   0.000000   0.000000
   50       59.116874     59.159603   0.000000   0.000000
   51       61.239758     61.910032   0.000000   0.000000
   52       63.019966     62.982018   0.000000   0.000000
   53       67.460673     66.728052   0.000000   0.000000
   54       69.692154     69.507342   0.000000   0.000000
 
  0.4897959E+00  0.4897959E+00  0.4897959E+00  0.1000000E-01
    1       -6.854444     -6.854443   1.000000   1.000000
    2       -3.886811     -3.886811   1.000000   1.000000
    3        2.110793      2.110794   1.000000   1.000000
    4        2.110793      2.110794   1.000000   1.000000
    5        4.087079      4.087079   0.000000   0.000000
    6        7.446690      7.446690   0.000000   0.000000
    7        7.446690      7.446690   0.000000   0.000000
    8       10.940019     10.940019   0.000000   0.000000
    9       14.260625     14.260624   0.000000   0.000000
   10       14.917914     14.917914   0.000000   0.000000
   11       14.917914     14.917914   0.000000   0.000000
   12       14.948078     14.948078   0.000000   0.000000
   13       16.115761     16.115762   0.000000   0.000000
   14       16.115761     16.115762   0.000000   0.000000
   15       22.540458     22.540458   0.000000   0.000000
   16       23.958696     23.958696   0.000000   0.000000
   17       25.105523     25.105524   0.000000   0.000000
   18       25.105523     25.105524   0.000000   0.000000
   19       25.727590     25.727590   0.000000   0.000000
   20       25.727590     25.727590   0.000000   0.000000
   21       28.736274     28.736273   0.000000   0.000000
   22       30.076386     30.076386   0.000000   0.000000
   23       30.289420     30.289420   0.000000   0.000000
   24       30.289420     30.289420   0.000000   0.000000
   25       30.802553     30.802553   0.000000   0.000000
   26       30.802553     30.802553   0.000000   0.000000
   27       31.711076     31.711076   0.000000   0.000000
   28       35.135813     35.135814   0.000000   0.000000
   29       35.135818     35.135816   0.000000   0.000000
   30       35.333820     35.333819   0.000000   0.000000
   31       35.333822     35.333819   0.000000   0.000000
   32       36.151770     36.151765   0.000000   0.000000
   33       37.267227     37.267230   0.000000   0.000000
   34       37.420789     37.420783   0.000000   0.000000
   35       42.524308     42.524135   0.000000   0.000000
   36       42.528233     42.528701   0.000000   0.000000
   37       42.786368     42.786811   0.000000   0.000000
   38       43.721610     43.721802   0.000000   0.000000
   39       43.723388     43.724095   0.000000   0.000000
   40       44.732933     44.732689   0.000000   0.000000
   41       48.110689     48.113641   0.000000   0.000000
   42       48.112476     48.116272   0.000000   0.000000
   43       50.472247     50.484029   0.000000   0.000000
   44       51.316823     51.191474   0.000000   0.000000
   45       52.140633     53.065482   0.000000   0.000000
   46       54.653886     54.592481   0.000000   0.000000
   47       55.962047     54.844904   0.000000   0.000000
   48       58.064709     58.457868   0.000000   0.000000
   49       58.833641     58.887146   0.000000   0.000000
   50       59.643321     59.796390   0.000000   0.000000
   51       62.043636     60.480188   0.000000   0.000000
   52       63.315147     63.773366   0.000000   0.000000
   53       65.601472     66.347725   0.000000   0.000000
   54       68.819468     68.904094   0.000000   0.000000
 
  0.4795918E+00  0.4795918E+00  0.4795918E+00  0.1000000E-01
    1       -6.869025     -6.869025   1.000000   1.000000
    2       -3.864339     -3.864339   1.000000   1.000000
    3        2.113586      2.113586   1.000000   1.000000
    4        2.113586      2.113586   1.000000   1.000000
    5        4.089515      4.089515   0.000000   0.000000
    6        7.447538      7.447538   0.000000   0.000000
    7        7.447538      7.447538   0.000000   0.000000
    8       10.943274     10.943274   0.000000   0.000000
    9       14.106450     14.106449   0.000000   0.000000
   10       14.824004     14.824004   0.000000   0.000000
   11       14.824004     14.824004   0.000000   0.000000
   12       15.096858     15.096857   0.000000   0.000000
   13       16.221216     16.221217   0.000000   0.000000
   14       16.221216     16.221217   0.000000   0.000000
   15       22.370233     22.370233   0.000000   0.000000
   16       24.144149     24.144149   0.000000   0.000000
   17       24.815620     24.815620   0.000000   0.000000
   18       24.815620     24.815620   0.000000   0.000000
   19       26.022626     26.022626   0.000000   0.000000
   20       26.022626     26.022626   0.000000   0.000000
   21       28.538124     28.538123   0.000000   0.000000
   22       30.276789     30.276788   0.000000   0.000000
   23       30.285341     30.285342   0.000000   0.000000
   24       30.285342     30.285342   0.000000   0.000000
   25       30.797020     30.797020   0.000000   0.000000
   26       30.797020     30.797020   0.000000   0.000000
   27       31.703789     31.703790   0.000000   0.000000
   28       35.141985     35.141988   0.000000   0.000000
   29       35.141997     35.141988   0.000000   0.000000
   30       35.353513     35.353512   0.000000   0.000000
   31       35.353522     35.353522   0.000000   0.000000
   32       36.128794     36.128792   0.000000   0.000000
   33       37.283140     37.283144   0.000000   0.000000
   34       37.457663     37.457667   0.000000   0.000000
   35       42.525301     42.525843   0.000000   0.000000
   36       42.539846     42.532506   0.000000   0.000000
   37       42.788228     42.787163   0.000000   0.000000
   38       43.719805     43.719543   0.000000   0.000000
   39       43.725119     43.720046   0.000000   0.000000
   40       44.722475     44.729483   0.000000   0.000000
   41       47.842237     47.840822   0.000000   0.000000
   42       47.852176     47.844749   0.000000   0.000000
   43       50.121989     49.975933   0.000000   0.000000
   44       50.180916     50.119352   0.000000   0.000000
   45       50.780033     51.080306   0.000000   0.000000
   46       53.653124     53.083723   0.000000   0.000000
   47       53.850410     53.389770   0.000000   0.000000
   48       55.144022     54.258992   0.000000   0.000000
   49       58.074198     56.485787   0.000000   0.000000
   50       59.290190     57.980735   0.000000   0.000000
   51       60.891049     59.328238   0.000000   0.000000
   52       61.608010     62.469458   0.000000   0.000000
   53       63.916871     63.873040   0.000000   0.000000
   54       65.957475     67.140778   0.000000   0.000000
 
  0.4693878E+00  0.4693878E+00  0.4693878E+00  0.1000000E-01
    1       -6.892820     -6.892819   1.000000   1.000000
    2       -3.827388     -3.827388   1.000000   1.000000
    3        2.118238      2.118239   1.000000   1.000000
    4        2.118238      2.118239   1.000000   1.000000
    5        4.093574      4.093574   0.000000   0.000000
    6        7.448914      7.448915   0.000000   0.000000
    7        7.448914      7.448915   0.000000   0.000000
    8       10.948607     10.948607   0.000000   0.000000
    9       13.922720     13.922719   0.000000   0.000000
   10       14.693685     14.693685   0.000000   0.000000
   11       14.693685     14.693685   0.000000   0.000000
   12       15.271074     15.271073   0.000000   0.000000
   13       16.370806     16.370806   0.000000   0.000000
   14       16.370806     16.370806   0.000000   0.000000
   15       22.149872     22.149872   0.000000   0.000000
   16       24.389978     24.389977   0.000000   0.000000
   17       24.523911     24.523911   0.000000   0.000000
   18       24.523911     24.523911   0.000000   0.000000
   19       26.322692     26.322693   0.000000   0.000000
   20       26.322697     26.322693   0.000000   0.000000
   21       28.285777     28.285777   0.000000   0.000000
   22       30.278729     30.278745   0.000000   0.000000
   23       30.278854     30.278890   0.000000   0.000000
   24       30.532917     30.532905   0.000000   0.000000
   25       30.788030     30.788062   0.000000   0.000000
   26       30.788092     30.788088   0.000000   0.000000
   27       31.692130     31.692203   0.000000   0.000000
   28       35.153765     35.155427   0.000000   0.000000
   29       35.161647     35.160316   0.000000   0.000000
   30       35.385941     35.386252   0.000000   0.000000
   31       35.387013     35.387293   0.000000   0.000000
   32       36.094279     36.094234   0.000000   0.000000
   33       37.338692     37.330335   0.000000   0.000000
   34       37.511916     37.517965   0.000000   0.000000
   35       42.638377     42.643283   0.000000   0.000000
   36       42.828354     42.788333   0.000000   0.000000
   37       43.170726     43.277840   0.000000   0.000000
   38       44.073155     44.131709   0.000000   0.000000
   39       44.656924     44.469419   0.000000   0.000000
   40       45.033045     44.935864   0.000000   0.000000
   41       47.292347     47.482855   0.000000   0.000000
   42       49.247249     48.542845   0.000000   0.000000
   43       50.832767     50.902568   0.000000   0.000000
   44       52.758283     51.049070   0.000000   0.000000
   45       52.809278     52.968188   0.000000   0.000000
   46       53.568361     53.444831   0.000000   0.000000
   47       55.132187     53.915385   0.000000   0.000000
   48       56.636015     57.994395   0.000000   0.000000
   49       59.466360     59.527747   0.000000   0.000000
   50       60.187380     59.731601   0.000000   0.000000
   51       61.300628     60.706190   0.000000   0.000000
   52       64.293391     62.800209   0.000000   0.000000
   53       64.755688     63.821820   0.000000   0.000000
   54       67.221686     65.048198   0.000000   0.000000
 
  0.4591837E+00  0.4591837E+00  0.4591837E+00  0.1000000E-01
    1       -6.925134     -6.925133   1.000000   1.000000
    2       -3.776655     -3.776655   1.000000   1.000000
    3        2.124748      2.124748   1.000000   1.000000
    4        2.124748      2.124748   1.000000   1.000000
    5        4.099252      4.099252   0.000000   0.000000
    6        7.450761      7.450761   0.000000   0.000000
    7        7.450761      7.450761   0.000000   0.000000
    8       10.955873     10.955872   0.000000   0.000000
    9       13.728253     13.728252   0.000000   0.000000
   10       14.544034     14.544034   0.000000   0.000000
   11       14.544034     14.544034   0.000000   0.000000
   12       15.451098     15.451098   0.000000   0.000000
   13       16.547492     16.547492   0.000000   0.000000
   14       16.547492     16.547492   0.000000   0.000000
   15       21.910241     21.910241   0.000000   0.000000
   16       24.233496     24.233496   0.000000   0.000000
   17       24.233496     24.233496   0.000000   0.000000
   18       24.665280     24.665279   0.000000   0.000000
   19       26.624379     26.624379   0.000000   0.000000
   20       26.624379     26.624379   0.000000   0.000000
   21       28.011682     28.011681   0.000000   0.000000
   22       30.269814     30.269814   0.000000   0.000000
   23       30.269814     30.269814   0.000000   0.000000
   24       30.775836     30.775836   0.000000   0.000000
   25       30.775836     30.775836   0.000000   0.000000
   26       30.812486     30.812486   0.000000   0.000000
   27       31.675114     31.675115   0.000000   0.000000
   28       35.170291     35.170291   0.000000   0.000000
   29       35.170291     35.170291   0.000000   0.000000
   30       35.427754     35.427753   0.000000   0.000000
   31       35.427754     35.427753   0.000000   0.000000
   32       36.052388     36.052388   0.000000   0.000000
   33       37.346241     37.346242   0.000000   0.000000
   34       37.591724     37.591726   0.000000   0.000000
   35       42.522811     42.522811   0.000000   0.000000
   36       42.522980     42.523053   0.000000   0.000000
   37       42.803967     42.803986   0.000000   0.000000
   38       43.707207     43.707210   0.000000   0.000000
   39       43.707335     43.707275   0.000000   0.000000
   40       44.740903     44.740937   0.000000   0.000000
   41       47.234337     47.234501   0.000000   0.000000
   42       47.235290     47.235173   0.000000   0.000000
   43       49.713094     49.722256   0.000000   0.000000
   44       50.345958     50.649090   0.000000   0.000000
   45       51.289460     51.449312   0.000000   0.000000
   46       53.229242     53.620368   0.000000   0.000000
   47       53.740000     53.764172   0.000000   0.000000
   48       54.869950     56.777537   0.000000   0.000000
   49       56.782386     57.656823   0.000000   0.000000
   50       57.933268     57.808286   0.000000   0.000000
   51       58.591166     60.658264   0.000000   0.000000
   52       62.433071     61.894472   0.000000   0.000000
   53       63.319828     64.470601   0.000000   0.000000
   54       66.947582     67.227573   0.000000   0.000000
 
  0.4489796E+00  0.4489796E+00  0.4489796E+00  0.1000000E-01
    1       -6.965102     -6.965102   1.000000   1.000000
    2       -3.713012     -3.713011   1.000000   1.000000
    3        2.133110      2.133111   1.000000   1.000000
    4        2.133110      2.133111   1.000000   1.000000
    5        4.106544      4.106544   0.000000   0.000000
    6        7.452997      7.452997   0.000000   0.000000
    7        7.452997      7.452997   0.000000   0.000000
    8       10.964846     10.964846   0.000000   0.000000
    9       13.529686     13.529685   0.000000   0.000000
   10       14.385073     14.385073   0.000000   0.000000
   11       14.385073     14.385073   0.000000   0.000000
   12       15.629090     15.629089   0.000000   0.000000
   13       16.741305     16.741306   0.000000   0.000000
   14       16.741305     16.741306   0.000000   0.000000
   15       21.666857     21.666857   0.000000   0.000000
   16       23.945134     23.945134   0.000000   0.000000
   17       23.945134     23.945134   0.000000   0.000000
   18       24.953969     24.953968   0.000000   0.000000
   19       26.926434     26.926435   0.000000   0.000000
   20       26.926434     26.926435   0.000000   0.000000
   21       27.731261     27.731260   0.000000   0.000000
   22       30.259007     30.259008   0.000000   0.000000
   23       30.259007     30.259008   0.000000   0.000000
   24       30.761010     30.761010   0.000000   0.000000
   25       30.761010     30.761011   0.000000   0.000000
   26       31.100913     31.100912   0.000000   0.000000
   27       31.654088     31.654090   0.000000   0.000000
   28       35.193987     35.193987   0.000000   0.000000
   29       35.193988     35.194016   0.000000   0.000000
   30       35.480052     35.480052   0.000000   0.000000
   31       35.480052     35.480075   0.000000   0.000000
   32       36.007871     36.007871   0.000000   0.000000
   33       37.393106     37.393257   0.000000   0.000000
   34       37.681754     37.681859   0.000000   0.000000
   35       42.522294     42.522326   0.000000   0.000000
   36       42.522531     42.542068   0.000000   0.000000
   37       42.814242     42.817690   0.000000   0.000000
   38       43.694829     43.694828   0.000000   0.000000
   39       43.694944     43.768036   0.000000   0.000000
   40       44.745910     44.743016   0.000000   0.000000
   41       46.907149     46.907314   0.000000   0.000000
   42       46.907721     46.932686   0.000000   0.000000
   43       49.440913     49.446742   0.000000   0.000000
   44       50.308803     50.450825   0.000000   0.000000
   45       51.150136     51.117729   0.000000   0.000000
   46       53.038905     53.121562   0.000000   0.000000
   47       53.233518     53.464015   0.000000   0.000000
   48       54.791534     55.314739   0.000000   0.000000
   49       56.934967     57.292345   0.000000   0.000000
   50       57.577237     57.452014   0.000000   0.000000
   51       58.756976     58.335104   0.000000   0.000000
   52       60.605864     59.117630   0.000000   0.000000
   53       62.801824     63.079918   0.000000   0.000000
   54       65.936857     66.150863   0.000000   0.000000
 
  0.4387755E+00  0.4387755E+00  0.4387755E+00  0.1000000E-01
    1       -7.011765     -7.011765   1.000000   1.000000
    2       -3.637425     -3.637425   1.000000   1.000000
    3        2.143320      2.143320   1.000000   1.000000
    4        2.143320      2.143320   1.000000   1.000000
    5        4.115445      4.115445   0.000000   0.000000
    6        7.455517      7.455517   0.000000   0.000000
    7        7.455517      7.455517   0.000000   0.000000
    8       10.975194     10.975194   0.000000   0.000000
    9       13.330058     13.330057   0.000000   0.000000
   10       14.222403     14.222403   0.000000   0.000000
   11       14.222403     14.222403   0.000000   0.000000
   12       15.800364     15.800364   0.000000   0.000000
   13       16.946706     16.946707   0.000000   0.000000
   14       16.946706     16.946707   0.000000   0.000000
   15       21.428560     21.428560   0.000000   0.000000
   16       23.659172     23.659172   0.000000   0.000000
   17       23.659172     23.659172   0.000000   0.000000
   18       25.244948     25.244947   0.000000   0.000000
   19       27.227763     27.227763   0.000000   0.000000
   20       27.227763     27.227763   0.000000   0.000000
   21       27.454917     27.454916   0.000000   0.000000
   22       30.246805     30.246804   0.000000   0.000000
   23       30.246810     30.246812   0.000000   0.000000
   24       30.744242     30.744242   0.000000   0.000000
   25       30.744247     30.744247   0.000000   0.000000
   26       31.390317     31.390316   0.000000   0.000000
   27       31.628951     31.628947   0.000000   0.000000
   28       35.224720     35.224715   0.000000   0.000000
   29       35.225413     35.225467   0.000000   0.000000
   30       35.541191     35.541207   0.000000   0.000000
   31       35.541601     35.541298   0.000000   0.000000
   32       35.965156     35.965157   0.000000   0.000000
   33       37.452065     37.451541   0.000000   0.000000
   34       37.783363     37.783022   0.000000   0.000000
   35       42.561182     42.562989   0.000000   0.000000
   36       42.642129     42.627095   0.000000   0.000000
   37       43.049253     42.937542   0.000000   0.000000
   38       43.792035     43.645998   0.000000   0.000000
   39       43.801573     43.775331   0.000000   0.000000
   40       44.741905     44.738009   0.000000   0.000000
   41       46.572154     46.559456   0.000000   0.000000
   42       47.382823     46.608744   0.000000   0.000000
   43       49.474283     49.261163   0.000000   0.000000
   44       51.204556     50.839848   0.000000   0.000000
   45       51.657057     51.529613   0.000000   0.000000
   46       53.427960     53.118019   0.000000   0.000000
   47       53.730994     53.616455   0.000000   0.000000
   48       55.746737     55.059256   0.000000   0.000000
   49       57.220507     56.625455   0.000000   0.000000
   50       58.934248     59.211431   0.000000   0.000000
   51       60.117781     59.390427   0.000000   0.000000
   52       61.671570     61.262943   0.000000   0.000000
   53       63.488195     63.271500   0.000000   0.000000
   54       66.767536     65.968023   0.000000   0.000000
 
  0.4285714E+00  0.4285714E+00  0.4285714E+00  0.1000000E-01
    1       -7.064135     -7.064135   1.000000   1.000000
    2       -3.550895     -3.550895   1.000000   1.000000
    3        2.155370      2.155370   1.000000   1.000000
    4        2.155370      2.155370   1.000000   1.000000
    5        4.125947      4.125947   0.000000   0.000000
    6        7.458192      7.458193   0.000000   0.000000
    7        7.458192      7.458193   0.000000   0.000000
    8       10.986434     10.986434   0.000000   0.000000
    9       13.131204     13.131203   0.000000   0.000000
   10       14.059276     14.059276   0.000000   0.000000
   11       14.059276     14.059276   0.000000   0.000000
   12       15.960945     15.960944   0.000000   0.000000
   13       17.160515     17.160516   0.000000   0.000000
   14       17.160515     17.160516   0.000000   0.000000
   15       21.201622     21.201622   0.000000   0.000000
   16       23.375842     23.375842   0.000000   0.000000
   17       23.375842     23.375842   0.000000   0.000000
   18       25.524527     25.524526   0.000000   0.000000
   19       27.195870     27.195872   0.000000   0.000000
   20       27.527021     27.527023   0.000000   0.000000
   21       27.527276     27.527190   0.000000   0.000000
   22       30.233909     30.233892   0.000000   0.000000
   23       30.234546     30.235093   0.000000   0.000000
   24       30.726568     30.726571   0.000000   0.000000
   25       30.726932     30.726742   0.000000   0.000000
   26       31.601815     31.603138   0.000000   0.000000
   27       31.677595     31.676536   0.000000   0.000000
   28       35.263043     35.263979   0.000000   0.000000
   29       35.276597     35.271512   0.000000   0.000000
   30       35.610510     35.610388   0.000000   0.000000
   31       35.718380     35.760271   0.000000   0.000000
   32       35.927839     35.918414   0.000000   0.000000
   33       37.769248     37.820533   0.000000   0.000000
   34       37.825487     37.858635   0.000000   0.000000
   35       42.640600     42.646704   0.000000   0.000000
   36       42.903966     42.949380   0.000000   0.000000
   37       43.675080     43.647139   0.000000   0.000000
   38       44.023183     43.863362   0.000000   0.000000
   39       44.530324     43.928434   0.000000   0.000000
   40       45.241128     45.152202   0.000000   0.000000
   41       46.209055     46.159093   0.000000   0.000000
   42       48.867872     48.301500   0.000000   0.000000
   43       51.605200     51.697840   0.000000   0.000000
   44       52.447407     51.897344   0.000000   0.000000
   45       52.652187     52.449022   0.000000   0.000000
   46       53.600427     53.566423   0.000000   0.000000
   47       54.843049     54.310585   0.000000   0.000000
   48       57.132000     57.018393   0.000000   0.000000
   49       58.624993     57.916847   0.000000   0.000000
   50       60.616905     58.764868   0.000000   0.000000
   51       63.929970     62.493442   0.000000   0.000000
   52       65.249757     64.763418   0.000000   0.000000
   53       65.583194     65.460468   0.000000   0.000000
   54       67.865402     66.884277   0.000000   0.000000
 
  0.4183673E+00  0.4183673E+00  0.4183673E+00  0.1000000E-01
    1       -7.121251     -7.121250   1.000000   1.000000
    2       -3.454396     -3.454396   1.000000   1.000000
    3        2.169251      2.169252   1.000000   1.000000
    4        2.169251      2.169252   1.000000   1.000000
    5        4.138040      4.138040   0.000000   0.000000
    6        7.460870      7.460870   0.000000   0.000000
    7        7.460870      7.460870   0.000000   0.000000
    8       10.997866     10.997866   0.000000   0.000000
    9       12.934591     12.934590   0.000000   0.000000
   10       13.897711     13.897711   0.000000   0.000000
   11       13.897711     13.897711   0.000000   0.000000
   12       16.106716     16.106715   0.000000   0.000000
   13       17.380828     17.380828   0.000000   0.000000
   14       17.380828     17.380828   0.000000   0.000000
   15       20.991514     20.991514   0.000000   0.000000
   16       23.095348     23.095348   0.000000   0.000000
   17       23.095348     23.095348   0.000000   0.000000
   18       25.763541     25.763540   0.000000   0.000000
   19       26.983021     26.983020   0.000000   0.000000
   20       27.822310     27.822310   0.000000   0.000000
   21       27.822310     27.822310   0.000000   0.000000
   22       30.220940     30.220940   0.000000   0.000000
   23       30.220942     30.220940   0.000000   0.000000
   24       30.709500     30.709500   0.000000   0.000000
   25       30.709504     30.709501   0.000000   0.000000
   26       31.567406     31.567402   0.000000   0.000000
   27       31.950853     31.950854   0.000000   0.000000
   28       35.307903     35.307902   0.000000   0.000000
   29       35.308213     35.307970   0.000000   0.000000
   30       35.687007     35.687007   0.000000   0.000000
   31       35.687183     35.687021   0.000000   0.000000
   32       35.902928     35.902933   0.000000   0.000000
   33       37.592534     37.591931   0.000000   0.000000
   34       38.010506     38.010206   0.000000   0.000000
   35       42.523207     42.522667   0.000000   0.000000
   36       42.571542     42.543171   0.000000   0.000000
   37       42.878831     42.861154   0.000000   0.000000
   38       43.596983     43.597519   0.000000   0.000000
   39       43.674215     43.611148   0.000000   0.000000
   40       44.794056     44.770779   0.000000   0.000000
   41       45.940778     45.923214   0.000000   0.000000
   42       45.983609     45.940687   0.000000   0.000000
   43       48.603935     48.625475   0.000000   0.000000
   44       50.662844     50.636787   0.000000   0.000000
   45       51.626141     51.527461   0.000000   0.000000
   46       52.968617     52.952447   0.000000   0.000000
   47       53.724532     53.692572   0.000000   0.000000
   48       55.816159     56.396544   0.000000   0.000000
   49       56.767337     56.777201   0.000000   0.000000
   50       57.689525     58.116559   0.000000   0.000000
   51       59.928843     60.723764   0.000000   0.000000
   52       61.910103     62.071979   0.000000   0.000000
   53       64.073526     64.449339   0.000000   0.000000
   54       65.208637     64.974601   0.000000   0.000000
 
  0.4081633E+00  0.4081633E+00  0.4081633E+00  0.1000000E-01
    1       -7.182219     -7.182218   1.000000   1.000000
    2       -3.348851     -3.348851   1.000000   1.000000
    3        2.184954      2.184954   1.000000   1.000000
    4        2.184954      2.184954   1.000000   1.000000
    5        4.151715      4.151715   0.000000   0.000000
    6        7.463372      7.463373   0.000000   0.000000
    7        7.463372      7.463373   0.000000   0.000000
    8       11.008450     11.008449   0.000000   0.000000
    9       12.741708     12.741707   0.000000   0.000000
   10       13.739054     13.739054   0.000000   0.000000
   11       13.739054     13.739054   0.000000   0.000000
   12       16.233113     16.233112   0.000000   0.000000
   13       17.606268     17.606269   0.000000   0.000000
   14       17.606268     17.606269   0.000000   0.000000
   15       20.803669     20.803669   0.000000   0.000000
   16       22.817890     22.817890   0.000000   0.000000
   17       22.817890     22.817890   0.000000   0.000000