       N       E                     dE             d eps       ncg     rms          ort
SDA:   1     0.538585376102E+02    0.53859E+02   -0.16190E+02  5400   0.405E+02 0.000E+00
DMP:   2     0.429517716148E+02   -0.10907E+02   -0.10026E+02  5400   0.171E+02 0.208E+02
DMP:   3     0.319687313972E+02   -0.10983E+02   -0.12366E+02  5400   0.179E+02 0.342E+02
DMP:   4     0.173922877306E+02   -0.14576E+02   -0.10491E+02  5400   0.137E+02 0.328E+02
DMP:   5     0.812585297976E+01   -0.92664E+01   -0.75978E+01  5400   0.929E+01 0.254E+02
DMP:   6     0.138007294329E+01   -0.67458E+01   -0.34470E+01  5400   0.399E+01 0.121E+02
DMP:   7    -0.145462294526E+01   -0.28347E+01   -0.15860E+01  5400   0.176E+01 0.579E+01
DMP:   8    -0.278524073424E+01   -0.13306E+01   -0.71304E+00  5400   0.758E+00 0.268E+01
DMP:   9    -0.339548230330E+01   -0.61024E+00   -0.32744E+00  5400   0.336E+00 0.126E+01
DMP:  10    -0.367330721484E+01   -0.27782E+00   -0.14184E+00  5400   0.141E+00 0.560E+00
DMP:  11    -0.379045688963E+01   -0.11715E+00   -0.56222E-01  5400   0.537E-01 0.227E+00
DMP:  12    -0.383566764518E+01   -0.45211E-01   -0.20414E-01  5400   0.188E-01 0.845E-01
DMP:  13    -0.385171601947E+01   -0.16048E-01   -0.68492E-02  5400   0.603E-02 0.290E-01
DMP:  14    -0.385700543325E+01   -0.52894E-02   -0.21394E-02  5400   0.179E-02 0.931E-02
DMP:  15    -0.385863019655E+01   -0.16248E-02   -0.61899E-03  5400   0.487E-03 0.278E-02
DMP:  16    -0.385909049242E+01   -0.46030E-03   -0.16208E-03  5400   0.117E-03 0.754E-03
DMP:  17    -0.385920719192E+01   -0.11670E-03   -0.36488E-04  5400   0.231E-04 0.178E-03
DMP:  18    -0.385923194037E+01   -0.24748E-04   -0.62270E-05  5400   0.315E-05 0.325E-04
   1 F= -.38592319E+01 E0= -.38592319E+01  d E =-.159897E-11  mag=     0.0000
