       N       E                     dE             d eps       ncg     rms          ort
SDA:   1     0.536367978173E+02    0.53637E+02   -0.17356E+02  5600   0.434E+02 0.000E+00
DMP:   2     0.431308281419E+02   -0.10506E+02   -0.97316E+01  5600   0.166E+02 0.202E+02
DMP:   3     0.322305388791E+02   -0.10900E+02   -0.12902E+02  5600   0.186E+02 0.357E+02
DMP:   4     0.175743695849E+02   -0.14656E+02   -0.10534E+02  5600   0.138E+02 0.329E+02
DMP:   5     0.832128159906E+01   -0.92531E+01   -0.78283E+01  5600   0.957E+01 0.262E+02
DMP:   6     0.157254868267E+01   -0.67487E+01   -0.34186E+01  5600   0.396E+01 0.120E+02
DMP:   7    -0.124876363109E+01   -0.28213E+01   -0.15889E+01  5600   0.176E+01 0.580E+01
DMP:   8    -0.257770412729E+01   -0.13289E+01   -0.70434E+00  5600   0.748E+00 0.265E+01
DMP:   9    -0.318329283852E+01   -0.60559E+00   -0.32523E+00  5600   0.334E+00 0.126E+01
DMP:  10    -0.345964221162E+01   -0.27635E+00   -0.14139E+00  5600   0.140E+00 0.559E+00
DMP:  11    -0.357654682582E+01   -0.11690E+00   -0.56138E-01  5600   0.536E-01 0.227E+00
DMP:  12    -0.362194185738E+01   -0.45395E-01   -0.20424E-01  5600   0.188E-01 0.846E-01
DMP:  13    -0.363777226504E+01   -0.15830E-01   -0.69023E-02  5600   0.607E-02 0.293E-01
DMP:  14    -0.364352038471E+01   -0.57481E-02   -0.21439E-02  5600   0.179E-02 0.934E-02
DMP:  15    -0.364472113277E+01   -0.12007E-02   -0.61879E-03  5600   0.486E-03 0.278E-02
DMP:  16    -0.364518104883E+01   -0.45992E-03   -0.16176E-03  5600   0.117E-03 0.753E-03
DMP:  17    -0.364572617256E+01   -0.54512E-03   -0.36445E-04  5600   0.230E-04 0.178E-03
DMP:  18    -0.364532212855E+01    0.40404E-03   -0.61829E-05  5600   0.310E-05 0.323E-04
DMP:  19    -0.364532570674E+01   -0.35782E-05   -0.45064E-06  5600   0.200E-06 0.243E-05
   1 F= -.36453257E+01 E0= -.36455320E+01  d E =0.618934E-03
