       N       E                     dE             d eps       ncg     rms          ort
SDA:   1     0.545507309489E+02    0.54551E+02   -0.16227E+02  5600   0.406E+02 0.000E+00
DMP:   2     0.438753599263E+02   -0.10675E+02   -0.98215E+01  5600   0.168E+02 0.204E+02
DMP:   3     0.330422841885E+02   -0.10833E+02   -0.12446E+02  5600   0.180E+02 0.344E+02
DMP:   4     0.184583174084E+02   -0.14584E+02   -0.10270E+02  5600   0.134E+02 0.321E+02
DMP:   5     0.919921907765E+01   -0.92591E+01   -0.79798E+01  5600   0.975E+01 0.267E+02
DMP:   6     0.246527966913E+01   -0.67339E+01   -0.34684E+01  5600   0.402E+01 0.122E+02
DMP:   7    -0.336667113051E+00   -0.28019E+01   -0.15247E+01  5600   0.169E+01 0.556E+01
DMP:   8    -0.165949350587E+01   -0.13228E+01   -0.72247E+00  5600   0.768E+00 0.272E+01
DMP:   9    -0.227153094430E+01   -0.61204E+00   -0.32626E+00  5600   0.335E+00 0.126E+01
DMP:  10    -0.254931671522E+01   -0.27779E+00   -0.14242E+00  5600   0.141E+00 0.563E+00
DMP:  11    -0.266746014071E+01   -0.11814E+00   -0.57090E-01  5600   0.545E-01 0.231E+00
DMP:  12    -0.271340896331E+01   -0.45949E-01   -0.20998E-01  5600   0.193E-01 0.869E-01
DMP:  13    -0.273011529585E+01   -0.16706E-01   -0.72185E-02  5600   0.635E-02 0.306E-01
DMP:  14    -0.273584104515E+01   -0.57257E-02   -0.22626E-02  5600   0.189E-02 0.985E-02
DMP:  15    -0.273756470372E+01   -0.17237E-02   -0.65788E-03  5600   0.517E-03 0.295E-02
DMP:  16    -0.273789164110E+01   -0.32694E-03   -0.17019E-03  5600   0.123E-03 0.793E-03
DMP:  17    -0.273801414789E+01   -0.12251E-03   -0.38245E-04  5600   0.241E-04 0.187E-03
DMP:  18    -0.273820394515E+01   -0.18980E-03   -0.65571E-05  5600   0.327E-05 0.343E-04
DMP:  19    -0.273804383391E+01    0.16011E-03   -0.46971E-06  5600   0.203E-06 0.254E-05
DMP:  20    -0.273804383212E+01    0.17926E-08    0.10650E-06  5600   0.186E-06-0.118E-05
   1 F= -.27380438E+01 E0= -.27382418E+01  d E =0.594047E-03
