 vasp.5.4.4.18Apr17-6-g9f103f2a35 (build Nov 08 2017 12:56:59) complex          
  
 executed on             LinuxIFC date 2020.06.23  11:37:10
 running on   56 total cores
 distrk:  each k-point on   56 cores,    1 groups
 distr:  one band on NCORES_PER_BAND=   1 cores,   56 groups


--------------------------------------------------------------------------------------------------------


 INCAR:
 POTCAR:    PAW_PBE Ge 05Jan2001                  

 ----------------------------------------------------------------------------- 
|                                                                             |
|           W    W    AA    RRRRR   N    N  II  N    N   GGGG   !!!           |
|           W    W   A  A   R    R  NN   N  II  NN   N  G    G  !!!           |
|           W    W  A    A  R    R  N N  N  II  N N  N  G       !!!           |
|           W WW W  AAAAAA  RRRRR   N  N N  II  N  N N  G  GGG   !            |
|           WW  WW  A    A  R   R   N   NN  II  N   NN  G    G                |
|           W    W  A    A  R    R  N    N  II  N    N   GGGG   !!!           |
|                                                                             |
|      For optimal performance we recommend to set                            |
|        NCORE= 4 - approx SQRT( number of cores)                             |
|      NCORE specifies how many cores store one orbital (NPAR=cpu/NCORE).     |
|      This setting can  greatly improve the performance of VASP for DFT.     |
|      The default,   NCORE=1            might be grossly inefficient         |
|      on modern multi-core architectures or massively parallel machines.     |
|      Do your own testing !!!!                                               |
|      Unfortunately you need to use the default for GW and RPA calculations. |
|      (for HF NCORE is supported but not extensively tested yet)             |
|                                                                             |
 ----------------------------------------------------------------------------- 

 POTCAR:    PAW_PBE Ge 05Jan2001                  
   VRHFIN =Ge: s2p2                                                             
   LEXCH  = PE                                                                  
   EATOM  =   104.9960 eV,    7.7170 Ry                                         
                                                                                
   TITEL  = PAW_PBE Ge 05Jan2001                                                
   LULTRA =        F    use ultrasoft PP ?                                      
   IUNSCR =        1    unscreen: 0-lin 1-nonlin 2-no                           
   RPACOR =    2.170    partial core radius                                     
   POMASS =   72.610; ZVAL   =    4.000    mass and valenz                      
   RCORE  =    2.300    outmost cutoff radius                                   
   RWIGS  =    2.300; RWIGS  =    1.217    wigner-seitz radius (au A)           
   ENMAX  =  173.807; ENMIN  =  130.355 eV                                      
   ICORE  =        3    local potential                                         
   LCOR   =        T    correct aug charges                                     
   LPAW   =        T    paw PP                                                  
   EAUG   =  385.843                                                            
   DEXC   =    0.000                                                            
   RMAX   =    2.342    core radius for proj-oper                               
   RAUG   =    1.300    factor for augmentation sphere                          
   RDEP   =    2.318    radius for radial grids                                 
   RDEPT  =    2.103    core radius for aug-charge                              
                                                                                
   Atomic configuration                                                         
   10 entries                                                                   
     n  l   j            E        occ.                                          
     1  0  0.50    -10959.8463   2.0000                                         
     2  0  0.50     -1371.6056   2.0000                                         
     2  1  1.50     -1198.4791   6.0000                                         
     3  0  0.50      -168.4733   2.0000                                         
     3  1  1.50      -115.6019   6.0000                                         
     3  2  2.50       -29.3106  10.0000                                         
     4  0  0.50       -11.7309   2.0000                                         
     4  1  0.50        -3.8952   2.0000                                         
     4  2  1.50        -4.0817   0.0000                                         
     4  3  2.50        -4.0817   0.0000                                         
   Description                                                                  
     l       E           TYP  RCUT    TYP  RCUT                                 
     0    -11.7309493     23  2.300                                             
     0     -7.4578696     23  2.300                                             
     1     -3.8952261     23  2.300                                             
     1      6.1178114     23  2.300                                             
     2     -4.0817478     23  2.300                                             
     3     -1.3605826      7  2.300                                             
  local pseudopotential read in
  partial core-charges read in
  partial kinetic energy density read in
  atomic valenz-charges read in
  non local Contribution for L=           0  read in
    real space projection operators read in
  non local Contribution for L=           0  read in
    real space projection operators read in
  non local Contribution for L=           1  read in
    real space projection operators read in
  non local Contribution for L=           1  read in
    real space projection operators read in
  non local Contribution for L=           2  read in
    real space projection operators read in
    PAW grid and wavefunctions read in
 
   number of l-projection  operators is LMAX  =           5
   number of lm-projection operators is LMMAX =          13
 
  PAW_PBE Ge 05Jan2001                  :
 energy of atom  1       EATOM= -104.9960
 kinetic energy error for atom=    0.0003 (will be added to EATOM!!)
 
 
 POSCAR: Ge                                      
  positions in direct lattice
  No initial velocities read in
 exchange correlation table for  LEXCH =        8
   RHO(1)=    0.500       N(1)  =     2000
   RHO(2)=  100.500       N(2)  =     4000
 


--------------------------------------------------------------------------------------------------------


 ion  position               nearest neighbor table
   1  0.000  0.000  0.000-   2 2.44   2 2.44   2 2.44   2 2.44
   2  0.250  0.250  0.250-   1 2.44   1 2.44   1 2.44   1 2.44
 
  LATTYP: Found a face centered cubic cell.
 ALAT       =     5.6330000000
  
  Lattice vectors:
  
 A1 = (   0.0000000000,   2.8165000000,   2.8165000000)
 A2 = (   2.8165000000,   0.0000000000,   2.8165000000)
 A3 = (   2.8165000000,   2.8165000000,   0.0000000000)


Analysis of symmetry for initial positions (statically):
=====================================================================
 Subroutine PRICEL returns:
 Original cell was already a primitive cell.
 

 Routine SETGRP: Setting up the symmetry group for a 
 face centered cubic supercell.


 Subroutine GETGRP returns: Found 48 space group operations
 (whereof 24 operations were pure point group operations)
 out of a pool of 48 trial point group operations.


The static configuration has the point symmetry T_d .
 The point group associated with its full space group is O_h .


Analysis of symmetry for dynamics (positions and initial velocities):
=====================================================================
 Subroutine PRICEL returns:
 Original cell was already a primitive cell.
 

 Routine SETGRP: Setting up the symmetry group for a 
 face centered cubic supercell.


 Subroutine GETGRP returns: Found 48 space group operations
 (whereof 24 operations were pure point group operations)
 out of a pool of 48 trial point group operations.


The dynamic configuration has the point symmetry T_d .
 The point group associated with its full space group is O_h .


 Subroutine INISYM returns: Found 48 space group operations
 (whereof 24 operations are pure point group operations),
 and found     1 'primitive' translations

 
 
 KPOINTS: band                                    
  interpolating k-points between supplied coordinates
  k-points in reciprocal lattice
Space group operators:
 irot       det(A)        alpha          n_x          n_y          n_z        tau_x        tau_y        tau_z
    1     1.000000     0.000000     1.000000     0.000000     0.000000     0.000000     0.000000     0.000000
    2     1.000000   120.000000    -0.577350    -0.577350    -0.577350     0.000000     0.000000     0.000000
    3     1.000000   120.000000     0.577350     0.577350     0.577350     0.000000     0.000000     0.000000
    4    -1.000000    90.000000     0.000000     0.000000    -1.000000     0.000000     0.000000     0.000000
    5    -1.000000   180.000000     0.000000     0.707107     0.707107     0.000000     0.000000     0.000000
    6    -1.000000    90.000000     0.000000     1.000000     0.000000     0.000000     0.000000     0.000000
    7     1.000000   180.000000     0.000000     0.000000     1.000000     0.000000     0.000000     0.000000
    8     1.000000   120.000000    -0.577350     0.577350     0.577350     0.000000     0.000000     0.000000
    9     1.000000   120.000000    -0.577350     0.577350    -0.577350     0.000000     0.000000     0.000000
   10    -1.000000    90.000000     0.000000     0.000000     1.000000     0.000000     0.000000     0.000000
   11    -1.000000    90.000000    -1.000000     0.000000     0.000000     0.000000     0.000000     0.000000
   12    -1.000000   180.000000     0.707107     0.000000     0.707107     0.000000     0.000000     0.000000
   13     1.000000   120.000000     0.577350    -0.577350     0.577350     0.000000     0.000000     0.000000
   14     1.000000   120.000000    -0.577350    -0.577350     0.577350     0.000000     0.000000     0.000000
   15     1.000000   180.000000     1.000000     0.000000     0.000000     0.000000     0.000000     0.000000
   16    -1.000000    90.000000     0.000000    -1.000000     0.000000     0.000000     0.000000     0.000000
   17    -1.000000   180.000000     0.707107     0.707107     0.000000     0.000000     0.000000     0.000000
   18    -1.000000    90.000000     1.000000     0.000000     0.000000     0.000000     0.000000     0.000000
   19     1.000000   120.000000     0.577350    -0.577350    -0.577350     0.000000     0.000000     0.000000
   20     1.000000   180.000000     0.000000     1.000000     0.000000     0.000000     0.000000     0.000000
   21     1.000000   120.000000     0.577350     0.577350    -0.577350     0.000000     0.000000     0.000000
   22    -1.000000   180.000000     0.000000    -0.707107     0.707107     0.000000     0.000000     0.000000
   23    -1.000000   180.000000     0.707107    -0.707107     0.000000     0.000000     0.000000     0.000000
   24    -1.000000   180.000000     0.707107     0.000000    -0.707107     0.000000     0.000000     0.000000
   25    -1.000000     0.000000     1.000000     0.000000     0.000000     0.250000     0.250000     0.250000
   26    -1.000000   120.000000    -0.577350    -0.577350    -0.577350     0.250000     0.250000     0.250000
   27    -1.000000   120.000000     0.577350     0.577350     0.577350     0.250000     0.250000     0.250000
   28     1.000000    90.000000     0.000000     0.000000    -1.000000     0.250000     0.250000     0.250000
   29     1.000000   180.000000     0.000000     0.707107     0.707107     0.250000     0.250000     0.250000
   30     1.000000    90.000000     0.000000     1.000000     0.000000     0.250000     0.250000     0.250000
   31    -1.000000   180.000000     0.000000     0.000000     1.000000     0.250000     0.250000     0.250000
   32    -1.000000   120.000000    -0.577350     0.577350     0.577350     0.250000     0.250000     0.250000
   33    -1.000000   120.000000    -0.577350     0.577350    -0.577350     0.250000     0.250000     0.250000
   34     1.000000    90.000000     0.000000     0.000000     1.000000     0.250000     0.250000     0.250000
   35     1.000000    90.000000    -1.000000     0.000000     0.000000     0.250000     0.250000     0.250000
   36     1.000000   180.000000     0.707107     0.000000     0.707107     0.250000     0.250000     0.250000
   37    -1.000000   120.000000     0.577350    -0.577350     0.577350     0.250000     0.250000     0.250000
   38    -1.000000   120.000000    -0.577350    -0.577350     0.577350     0.250000     0.250000     0.250000
   39    -1.000000   180.000000     1.000000     0.000000     0.000000     0.250000     0.250000     0.250000
   40     1.000000    90.000000     0.000000    -1.000000     0.000000     0.250000     0.250000     0.250000
   41     1.000000   180.000000     0.707107     0.707107     0.000000     0.250000     0.250000     0.250000
   42     1.000000    90.000000     1.000000     0.000000     0.000000     0.250000     0.250000     0.250000
   43    -1.000000   120.000000     0.577350    -0.577350    -0.577350     0.250000     0.250000     0.250000
   44    -1.000000   180.000000     0.000000     1.000000     0.000000     0.250000     0.250000     0.250000
   45    -1.000000   120.000000     0.577350     0.577350    -0.577350     0.250000     0.250000     0.250000
   46     1.000000   180.000000     0.000000    -0.707107     0.707107     0.250000     0.250000     0.250000
   47     1.000000   180.000000     0.707107    -0.707107     0.000000     0.250000     0.250000     0.250000
   48     1.000000   180.000000     0.707107     0.000000    -0.707107     0.250000     0.250000     0.250000


--------------------------------------------------------------------------------------------------------




 Dimension of arrays:
   k-points           NKPTS =    100   k-points in BZ     NKDIM =    100   number of bands    NBANDS=     56
   number of dos      NEDOS =    301   number of ions     NIONS =      2
   non local maximal  LDIM  =      5   non local SUM 2l+1 LMDIM =     13
   total plane-waves  NPLWV =  13824
   max r-space proj   IRMAX =      1   max aug-charges    IRDMAX=  17012
   dimension x,y,z NGX =    24 NGY =   24 NGZ =   24
   dimension x,y,z NGXF=    48 NGYF=   48 NGZF=   48
   support grid    NGXF=    48 NGYF=   48 NGZF=   48
   ions per type =               2
   NGX,Y,Z   is equivalent  to a cutoff of  10.02, 10.02, 10.02 a.u.
   NGXF,Y,Z  is equivalent  to a cutoff of  20.03, 20.03, 20.03 a.u.

 SYSTEM =  unknown system                          
 POSCAR =  Ge                                      

 Startparameter for this run:
   NWRITE =      2    write-flag & timer
   PREC   = n         normal or accurate (medium, high low for compatibility)
   ISTART =      1    job   : 0-new  1-cont  2-samecut
   ICHARG =     11    charge: 1-file 2-atom 10-const
   ISPIN  =      1    spin polarized calculation?
   LNONCOLLINEAR =      F non collinear calculations
   LSORBIT =      F    spin-orbit coupling
   INIWAV =      1    electr: 0-lowe 1-rand  2-diag
   LASPH  =      F    aspherical Exc in radial PAW
   METAGGA=      F    non-selfconsistent MetaGGA calc.

 Electronic Relaxation 1
   ENCUT  =  450.0 eV  33.07 Ry    5.75 a.u.   6.89  6.89  6.89*2*pi/ulx,y,z
   ENINI  =  450.0     initial cutoff
   ENAUG  =  385.8 eV  augmentation charge cutoff
   NELM   =     60;   NELMIN=  2; NELMDL=  0     # of ELM steps 
   EDIFF  = 0.1E-03   stopping-criterion for ELM
   LREAL  =      F    real-space projection
   NLSPLINE    = F    spline interpolate recip. space projectors
   LCOMPAT=      F    compatible to vasp.4.4
   GGA_COMPAT  = T    GGA compatible to vasp.4.4-vasp.4.6
   LMAXPAW     = -100 max onsite density
   LMAXMIX     =    2 max onsite mixed and CHGCAR
   VOSKOWN=      0    Vosko Wilk Nusair interpolation
   ROPT   =    0.00000
 Ionic relaxation
   EDIFFG = 0.1E-02   stopping-criterion for IOM
   NSW    =      0    number of steps for IOM
   NBLOCK =      1;   KBLOCK =      1    inner block; outer block 
   IBRION =     -1    ionic relax: 0-MD 1-quasi-New 2-CG
   NFREE  =      0    steps in history (QN), initial steepest desc. (CG)
   ISIF   =      2    stress and relaxation
   IWAVPR =     10    prediction:  0-non 1-charg 2-wave 3-comb
   ISYM   =      2    0-nonsym 1-usesym 2-fastsym
   LCORR  =      T    Harris-Foulkes like correction to forces

   POTIM  = 0.5000    time-step for ionic-motion
   TEIN   =    0.0    initial temperature
   TEBEG  =    0.0;   TEEND  =   0.0 temperature during run
   SMASS  =  -3.00    Nose mass-parameter (am)
   estimated Nose-frequenzy (Omega)   =  0.10E-29 period in steps =****** mass=  -0.363E-27a.u.
   SCALEE = 1.0000    scale energy and forces
   NPACO  =    256;   APACO  = 16.0  distance and # of slots for P.C.
   PSTRESS=    0.0 pullay stress

  Mass of Ions in am
   POMASS =  72.61
  Ionic Valenz
   ZVAL   =   4.00
  Atomic Wigner-Seitz radii
   RWIGS  =  -1.00
  virtual crystal weights 
   VCA    =   1.00
   NELECT =       8.0000    total number of electrons
   NUPDOWN=      -1.0000    fix difference up-down

 DOS related values:
   EMIN   =  10.00;   EMAX   =-10.00  energy-range for DOS
   EFERMI =   0.00
   ISMEAR =     1;   SIGMA  =   0.05  broadening in eV -4-tet -1-fermi 0-gaus

 Electronic relaxation 2 (details)
   IALGO  =     53    algorithm
   LDIAG  =      T    sub-space diagonalisation (order eigenvalues)
   LSUBROT=      F    optimize rotation matrix (better conditioning)
   TURBO    =      0    0=normal 1=particle mesh
   IRESTART =      0    0=no restart 2=restart with 2 vectors
   NREBOOT  =      0    no. of reboots
   NMIN     =      0    reboot dimension
   EREF     =   0.00    reference energy to select bands
   IMIX   =      4    mixing-type and parameters
     AMIX     =   0.40;   BMIX     =  1.00
     AMIX_MAG =   1.60;   BMIX_MAG =  1.00
     AMIN     =   0.10
     WC   =   100.;   INIMIX=   1;  MIXPRE=   1;  MAXMIX= -45

 Intra band minimization:
   WEIMIN = 0.0000     energy-eigenvalue tresh-hold
   EBREAK =  0.45E-06  absolut break condition
   DEPER  =   0.30     relativ break condition  

   TIME   =   0.40     timestep for ELM

  volume/ion in A,a.u.               =      22.34       150.77
  Fermi-wavevector in a.u.,A,eV,Ry     =   0.922681  1.743615 11.583196  0.851341
  Thomas-Fermi vector in A             =   2.048235
 
 Write flags
   LWAVE        =      F    write WAVECAR
   LDOWNSAMPLE  =      F    k-point downsampling of WAVECAR
   LCHARG       =      F    write CHGCAR
   LVTOT        =      F    write LOCPOT, total local potential
   LVHAR        =      F    write LOCPOT, Hartree potential only
   LELF         =      F    write electronic localiz. function (ELF)
   LORBIT       =      0    0 simple, 1 ext, 2 COOP (PROOUT), +10 PAW based schemes


 Dipole corrections
   LMONO  =      F    monopole corrections only (constant potential shift)
   LDIPOL =      F    correct potential (dipole corrections)
   IDIPOL =      0    1-x, 2-y, 3-z, 4-all directions 
   EPSILON=  1.0000000 bulk dielectric constant

 LDA+U is selected, type is set to LDAUTYPE =  2
   angular momentum for each species LDAUL =     1
   U (eV)           for each species LDAUU =  -1.4
   J (eV)           for each species LDAUJ =   0.0
 Exchange correlation treatment:
   GGA     =    PE    GGA type
   LEXCH   =     8    internal setting for exchange type
   VOSKOWN=      0    Vosko Wilk Nusair interpolation
   LHFCALC =     F    Hartree Fock is set to
   LHFONE  =     F    Hartree Fock one center treatment
   AEXX    =    0.0000 exact exchange contribution

 Linear response parameters
   LEPSILON=     F    determine dielectric tensor
   LRPA    =     F    only Hartree local field effects (RPA)
   LNABLA  =     F    use nabla operator in PAW spheres
   LVEL    =     F    velocity operator in full k-point grid
   LINTERFAST=   F  fast interpolation
   KINTER  =     0    interpolate to denser k-point grid
   CSHIFT  =0.1000    complex shift for real part using Kramers Kronig
   OMEGAMAX=  -1.0    maximum frequency
   DEG_THRESHOLD= 0.2000000E-02 threshold for treating states as degnerate
   RTIME   =   -0.100 relaxation time in fs
  (WPLASMAI=    0.000 imaginary part of plasma frequency in eV, 0.658/RTIME)
   DFIELD  = 0.0000000 0.0000000 0.0000000 field for delta impulse in time
 
 Orbital magnetization related:
   ORBITALMAG=     F  switch on orbital magnetization
   LCHIMAG   =     F  perturbation theory with respect to B field
   DQ        =  0.001000  dq finite difference perturbation B field
   LLRAUG    =     F  two centre corrections for induced B field



--------------------------------------------------------------------------------------------------------


 Static calculation
 charge density and potential remain constant during run
 non-spin polarized calculation
 Conjugate gradient for all bands (Freysoldt, et al. PRB 79, 241103 (2009))
 perform sub-space diagonalisation
    before iterative eigenvector-optimisation
 no mixing
 using additional bands           52
 reciprocal scheme for non local part
 use partial core corrections
 calculate Harris-corrections to forces 
   (improved forces if not selfconsistent)
 use gradient corrections 
 WARNING: stress and forces are not correct
  (second derivative of E(xc) not defined)
 use of overlap-Matrix (Vanderbilt PP)
 Methfessel and Paxton  Order N= 1 SIGMA  =   0.05


--------------------------------------------------------------------------------------------------------


  energy-cutoff  :      450.00
  volume of cell :       44.68
      direct lattice vectors                 reciprocal lattice vectors
     0.000000000  2.816500000  2.816500000    -0.177525297  0.177525297  0.177525297
     2.816500000  0.000000000  2.816500000     0.177525297 -0.177525297  0.177525297
     2.816500000  2.816500000  0.000000000     0.177525297  0.177525297 -0.177525297

  length of vectors
     3.983132498  3.983132498  3.983132498     0.307482835  0.307482835  0.307482835


 
 old parameters found on file WAVECAR:
  energy-cutoff  :      450.00
  volume of cell :       44.68
      direct lattice vectors                 reciprocal lattice vectors
     0.000000000  2.816500000  2.816500000    -0.177525297  0.177525297  0.177525297
     2.816500000  0.000000000  2.816500000     0.177525297 -0.177525297  0.177525297
     2.816500000  2.816500000  0.000000000     0.177525297  0.177525297 -0.177525297

  length of vectors

 
 k-points in units of 2pi/SCALE and weight: band                                    
   0.08876265  0.08876265  0.08876265       0.010
   0.08695117  0.08695117  0.08695117       0.010
   0.08513968  0.08513968  0.08513968       0.010
   0.08332820  0.08332820  0.08332820       0.010
   0.08151672  0.08151672  0.08151672       0.010
   0.07970524  0.07970524  0.07970524       0.010
   0.07789375  0.07789375  0.07789375       0.010
   0.07608227  0.07608227  0.07608227       0.010
   0.07427079  0.07427079  0.07427079       0.010
   0.07245931  0.07245931  0.07245931       0.010
   0.07064782  0.07064782  0.07064782       0.010
   0.06883634  0.06883634  0.06883634       0.010
   0.06702486  0.06702486  0.06702486       0.010
   0.06521337  0.06521337  0.06521337       0.010
   0.06340189  0.06340189  0.06340189       0.010
   0.06159041  0.06159041  0.06159041       0.010
   0.05977893  0.05977893  0.05977893       0.010
   0.05796744  0.05796744  0.05796744       0.010
   0.05615596  0.05615596  0.05615596       0.010
   0.05434448  0.05434448  0.05434448       0.010
   0.05253300  0.05253300  0.05253300       0.010
   0.05072151  0.05072151  0.05072151       0.010
   0.04891003  0.04891003  0.04891003       0.010
   0.04709855  0.04709855  0.04709855       0.010
   0.04528707  0.04528707  0.04528707       0.010
   0.04347558  0.04347558  0.04347558       0.010
   0.04166410  0.04166410  0.04166410       0.010
   0.03985262  0.03985262  0.03985262       0.010
   0.03804114  0.03804114  0.03804114       0.010
   0.03622965  0.03622965  0.03622965       0.010
   0.03441817  0.03441817  0.03441817       0.010
   0.03260669  0.03260669  0.03260669       0.010
   0.03079520  0.03079520  0.03079520       0.010
   0.02898372  0.02898372  0.02898372       0.010
   0.02717224  0.02717224  0.02717224       0.010
   0.02536076  0.02536076  0.02536076       0.010
   0.02354927  0.02354927  0.02354927       0.010
   0.02173779  0.02173779  0.02173779       0.010
   0.01992631  0.01992631  0.01992631       0.010
   0.01811483  0.01811483  0.01811483       0.010
   0.01630334  0.01630334  0.01630334       0.010
   0.01449186  0.01449186  0.01449186       0.010
   0.01268038  0.01268038  0.01268038       0.010
   0.01086890  0.01086890  0.01086890       0.010
   0.00905741  0.00905741  0.00905741       0.010
   0.00724593  0.00724593  0.00724593       0.010
   0.00543445  0.00543445  0.00543445       0.010
   0.00362297  0.00362297  0.00362297       0.010
   0.00181148  0.00181148  0.00181148       0.010
   0.00000000  0.00000000  0.00000000       0.010
   0.00000000  0.00000000  0.00000000       0.010
   0.00000000  0.00362297  0.00000000       0.010
   0.00000000  0.00724593  0.00000000       0.010
   0.00000000  0.01086890  0.00000000       0.010
   0.00000000  0.01449186  0.00000000       0.010
   0.00000000  0.01811483  0.00000000       0.010
   0.00000000  0.02173779  0.00000000       0.010
   0.00000000  0.02536076  0.00000000       0.010
   0.00000000  0.02898372  0.00000000       0.010
   0.00000000  0.03260669  0.00000000       0.010
   0.00000000  0.03622965  0.00000000       0.010
   0.00000000  0.03985262  0.00000000       0.010
   0.00000000  0.04347558  0.00000000       0.010
   0.00000000  0.04709855  0.00000000       0.010
   0.00000000  0.05072151  0.00000000       0.010
   0.00000000  0.05434448  0.00000000       0.010
   0.00000000  0.05796744  0.00000000       0.010
   0.00000000  0.06159041  0.00000000       0.010
   0.00000000  0.06521337  0.00000000       0.010
   0.00000000  0.06883634  0.00000000       0.010
   0.00000000  0.07245931  0.00000000       0.010
   0.00000000  0.07608227  0.00000000       0.010
   0.00000000  0.07970524  0.00000000       0.010
   0.00000000  0.08332820  0.00000000       0.010
   0.00000000  0.08695117  0.00000000       0.010
   0.00000000  0.09057413  0.00000000       0.010
   0.00000000  0.09419710  0.00000000       0.010
   0.00000000  0.09782006  0.00000000       0.010
   0.00000000  0.10144303  0.00000000       0.010
   0.00000000  0.10506599  0.00000000       0.010
   0.00000000  0.10868896  0.00000000       0.010
   0.00000000  0.11231192  0.00000000       0.010
   0.00000000  0.11593489  0.00000000       0.010
   0.00000000  0.11955785  0.00000000       0.010
   0.00000000  0.12318082  0.00000000       0.010
   0.00000000  0.12680378  0.00000000       0.010
   0.00000000  0.13042675  0.00000000       0.010
   0.00000000  0.13404971  0.00000000       0.010
   0.00000000  0.13767268  0.00000000       0.010
   0.00000000  0.14129564  0.00000000       0.010
   0.00000000  0.14491861  0.00000000       0.010
   0.00000000  0.14854158  0.00000000       0.010
   0.00000000  0.15216454  0.00000000       0.010
   0.00000000  0.15578751  0.00000000       0.010
   0.00000000  0.15941047  0.00000000       0.010
   0.00000000  0.16303344  0.00000000       0.010
   0.00000000  0.16665640  0.00000000       0.010
   0.00000000  0.17027937  0.00000000       0.010
   0.00000000  0.17390233  0.00000000       0.010
   0.00000000  0.17752530  0.00000000       0.010
 
 k-points in reciprocal lattice and weights: band                                    
   0.50000000  0.50000000  0.50000000       0.010
   0.48979592  0.48979592  0.48979592       0.010
   0.47959184  0.47959184  0.47959184       0.010
   0.46938776  0.46938776  0.46938776       0.010
   0.45918367  0.45918367  0.45918367       0.010
   0.44897959  0.44897959  0.44897959       0.010
   0.43877551  0.43877551  0.43877551       0.010
   0.42857143  0.42857143  0.42857143       0.010
   0.41836735  0.41836735  0.41836735       0.010
   0.40816327  0.40816327  0.40816327       0.010
   0.39795918  0.39795918  0.39795918       0.010
   0.38775510  0.38775510  0.38775510       0.010
   0.37755102  0.37755102  0.37755102       0.010
   0.36734694  0.36734694  0.36734694       0.010
   0.35714286  0.35714286  0.35714286       0.010
   0.34693878  0.34693878  0.34693878       0.010
   0.33673469  0.33673469  0.33673469       0.010
   0.32653061  0.32653061  0.32653061       0.010
   0.31632653  0.31632653  0.31632653       0.010
   0.30612245  0.30612245  0.30612245       0.010
   0.29591837  0.29591837  0.29591837       0.010
   0.28571429  0.28571429  0.28571429       0.010
   0.27551020  0.27551020  0.27551020       0.010
   0.26530612  0.26530612  0.26530612       0.010
   0.25510204  0.25510204  0.25510204       0.010
   0.24489796  0.24489796  0.24489796       0.010
   0.23469388  0.23469388  0.23469388       0.010
   0.22448980  0.22448980  0.22448980       0.010
   0.21428571  0.21428571  0.21428571       0.010
   0.20408163  0.20408163  0.20408163       0.010
   0.19387755  0.19387755  0.19387755       0.010
   0.18367347  0.18367347  0.18367347       0.010
   0.17346939  0.17346939  0.17346939       0.010
   0.16326531  0.16326531  0.16326531       0.010
   0.15306122  0.15306122  0.15306122       0.010
   0.14285714  0.14285714  0.14285714       0.010
   0.13265306  0.13265306  0.13265306       0.010
   0.12244898  0.12244898  0.12244898       0.010
   0.11224490  0.11224490  0.11224490       0.010
   0.10204082  0.10204082  0.10204082       0.010
   0.09183673  0.09183673  0.09183673       0.010
   0.08163265  0.08163265  0.08163265       0.010
   0.07142857  0.07142857  0.07142857       0.010
   0.06122449  0.06122449  0.06122449       0.010
   0.05102041  0.05102041  0.05102041       0.010
   0.04081633  0.04081633  0.04081633       0.010
   0.03061224  0.03061224  0.03061224       0.010
   0.02040816  0.02040816  0.02040816       0.010
   0.01020408  0.01020408  0.01020408       0.010
   0.00000000  0.00000000  0.00000000       0.010
   0.00000000  0.00000000  0.00000000       0.010
   0.01020408  0.00000000  0.01020408       0.010
   0.02040816  0.00000000  0.02040816       0.010
   0.03061224  0.00000000  0.03061224       0.010
   0.04081633  0.00000000  0.04081633       0.010
   0.05102041  0.00000000  0.05102041       0.010
   0.06122449  0.00000000  0.06122449       0.010
   0.07142857  0.00000000  0.07142857       0.010
   0.08163265  0.00000000  0.08163265       0.010
   0.09183673  0.00000000  0.09183673       0.010
   0.10204082  0.00000000  0.10204082       0.010
   0.11224490  0.00000000  0.11224490       0.010
   0.12244898  0.00000000  0.12244898       0.010
   0.13265306  0.00000000  0.13265306       0.010
   0.14285714  0.00000000  0.14285714       0.010
   0.15306122  0.00000000  0.15306122       0.010
   0.16326531  0.00000000  0.16326531       0.010
   0.17346939  0.00000000  0.17346939       0.010
   0.18367347  0.00000000  0.18367347       0.010
   0.19387755  0.00000000  0.19387755       0.010
   0.20408163  0.00000000  0.20408163       0.010
   0.21428571  0.00000000  0.21428571       0.010
   0.22448980  0.00000000  0.22448980       0.010
   0.23469388  0.00000000  0.23469388       0.010
   0.24489796  0.00000000  0.24489796       0.010
   0.25510204  0.00000000  0.25510204       0.010
   0.26530612  0.00000000  0.26530612       0.010
   0.27551020  0.00000000  0.27551020       0.010
   0.28571429  0.00000000  0.28571429       0.010
   0.29591837  0.00000000  0.29591837       0.010
   0.30612245  0.00000000  0.30612245       0.010
   0.31632653  0.00000000  0.31632653       0.010
   0.32653061  0.00000000  0.32653061       0.010
   0.33673469  0.00000000  0.33673469       0.010
   0.34693878  0.00000000  0.34693878       0.010
   0.35714286  0.00000000  0.35714286       0.010
   0.36734694  0.00000000  0.36734694       0.010
   0.37755102  0.00000000  0.37755102       0.010
   0.38775510  0.00000000  0.38775510       0.010
   0.39795918  0.00000000  0.39795918       0.010
   0.40816327  0.00000000  0.40816327       0.010
   0.41836735  0.00000000  0.41836735       0.010
   0.42857143  0.00000000  0.42857143       0.010
   0.43877551  0.00000000  0.43877551       0.010
   0.44897959  0.00000000  0.44897959       0.010
   0.45918367  0.00000000  0.45918367       0.010
   0.46938776  0.00000000  0.46938776       0.010
   0.47959184  0.00000000  0.47959184       0.010
   0.48979592  0.00000000  0.48979592       0.010
   0.50000000  0.00000000  0.50000000       0.010
 
 position of ions in fractional coordinates (direct lattice) 
   0.00000000  0.00000000  0.00000000
   0.25000000  0.25000000  0.25000000
 
 position of ions in cartesian coordinates  (Angst):
   0.00000000  0.00000000  0.00000000
   1.40825000  1.40825000  1.40825000
 


--------------------------------------------------------------------------------------------------------


 k-point  1 :   0.5000 0.5000 0.5000  plane waves:     978
 k-point  2 :   0.4898 0.4898 0.4898  plane waves:     969
 k-point  3 :   0.4796 0.4796 0.4796  plane waves:     969
 k-point  4 :   0.4694 0.4694 0.4694  plane waves:     969
 k-point  5 :   0.4592 0.4592 0.4592  plane waves:     969
 k-point  6 :   0.4490 0.4490 0.4490  plane waves:     969
 k-point  7 :   0.4388 0.4388 0.4388  plane waves:     969
 k-point  8 :   0.4286 0.4286 0.4286  plane waves:     969
 k-point  9 :   0.4184 0.4184 0.4184  plane waves:     963
 k-point 10 :   0.4082 0.4082 0.4082  plane waves:     963
 k-point 11 :   0.3980 0.3980 0.3980  plane waves:     966
 k-point 12 :   0.3878 0.3878 0.3878  plane waves:     954
 k-point 13 :   0.3776 0.3776 0.3776  plane waves:     960
 k-point 14 :   0.3673 0.3673 0.3673  plane waves:     965
 k-point 15 :   0.3571 0.3571 0.3571  plane waves:     962
 k-point 16 :   0.3469 0.3469 0.3469  plane waves:     968
 k-point 17 :   0.3367 0.3367 0.3367  plane waves:     968
 k-point 18 :   0.3265 0.3265 0.3265  plane waves:     968
 k-point 19 :   0.3163 0.3163 0.3163  plane waves:     968
 k-point 20 :   0.3061 0.3061 0.3061  plane waves:     962
 k-point 21 :   0.2959 0.2959 0.2959  plane waves:     962
 k-point 22 :   0.2857 0.2857 0.2857  plane waves:     956
 k-point 23 :   0.2755 0.2755 0.2755  plane waves:     956
 k-point 24 :   0.2653 0.2653 0.2653  plane waves:     962
 k-point 25 :   0.2551 0.2551 0.2551  plane waves:     959
 k-point 26 :   0.2449 0.2449 0.2449  plane waves:     959
 k-point 27 :   0.2347 0.2347 0.2347  plane waves:     953
 k-point 28 :   0.2245 0.2245 0.2245  plane waves:     953
 k-point 29 :   0.2143 0.2143 0.2143  plane waves:     953
 k-point 30 :   0.2041 0.2041 0.2041  plane waves:     956
 k-point 31 :   0.1939 0.1939 0.1939  plane waves:     956
 k-point 32 :   0.1837 0.1837 0.1837  plane waves:     950
 k-point 33 :   0.1735 0.1735 0.1735  plane waves:     956
 k-point 34 :   0.1633 0.1633 0.1633  plane waves:     956
 k-point 35 :   0.1531 0.1531 0.1531  plane waves:     953
 k-point 36 :   0.1429 0.1429 0.1429  plane waves:     959
 k-point 37 :   0.1327 0.1327 0.1327  plane waves:     953
 k-point 38 :   0.1224 0.1224 0.1224  plane waves:     953
 k-point 39 :   0.1122 0.1122 0.1122  plane waves:     950
 k-point 40 :   0.1020 0.1020 0.1020  plane waves:     950
 k-point 41 :   0.0918 0.0918 0.0918  plane waves:     950
 k-point 42 :   0.0816 0.0816 0.0816  plane waves:     950
 k-point 43 :   0.0714 0.0714 0.0714  plane waves:     950
 k-point 44 :   0.0612 0.0612 0.0612  plane waves:     944
 k-point 45 :   0.0510 0.0510 0.0510  plane waves:     944
 k-point 46 :   0.0408 0.0408 0.0408  plane waves:     944
 k-point 47 :   0.0306 0.0306 0.0306  plane waves:     941
 k-point 48 :   0.0204 0.0204 0.0204  plane waves:     941
 k-point 49 :   0.0102 0.0102 0.0102  plane waves:     941
 k-point 50 :   0.0000 0.0000 0.0000  plane waves:     941
 k-point 51 :   0.0000 0.0000 0.0000  plane waves:     941
 k-point 52 :   0.0102 0.0000 0.0102  plane waves:     941
 k-point 53 :   0.0204 0.0000 0.0204  plane waves:     941
 k-point 54 :   0.0306 0.0000 0.0306  plane waves:     941
 k-point 55 :   0.0408 0.0000 0.0408  plane waves:     945
 k-point 56 :   0.0510 0.0000 0.0510  plane waves:     945
 k-point 57 :   0.0612 0.0000 0.0612  plane waves:     945
 k-point 58 :   0.0714 0.0000 0.0714  plane waves:     953
 k-point 59 :   0.0816 0.0000 0.0816  plane waves:     953
 k-point 60 :   0.0918 0.0000 0.0918  plane waves:     953
 k-point 61 :   0.1020 0.0000 0.1020  plane waves:     953
 k-point 62 :   0.1122 0.0000 0.1122  plane waves:     945
 k-point 63 :   0.1224 0.0000 0.1224  plane waves:     949
 k-point 64 :   0.1327 0.0000 0.1327  plane waves:     950
 k-point 65 :   0.1429 0.0000 0.1429  plane waves:     950
 k-point 66 :   0.1531 0.0000 0.1531  plane waves:     962
 k-point 67 :   0.1633 0.0000 0.1633  plane waves:     966
 k-point 68 :   0.1735 0.0000 0.1735  plane waves:     966
 k-point 69 :   0.1837 0.0000 0.1837  plane waves:     966
 k-point 70 :   0.1939 0.0000 0.1939  plane waves:     966
 k-point 71 :   0.2041 0.0000 0.2041  plane waves:     966
 k-point 72 :   0.2143 0.0000 0.2143  plane waves:     974
 k-point 73 :   0.2245 0.0000 0.2245  plane waves:     978
 k-point 74 :   0.2347 0.0000 0.2347  plane waves:     982
 k-point 75 :   0.2449 0.0000 0.2449  plane waves:     982
 k-point 76 :   0.2551 0.0000 0.2551  plane waves:     982
 k-point 77 :   0.2653 0.0000 0.2653  plane waves:     982
 k-point 78 :   0.2755 0.0000 0.2755  plane waves:     982
 k-point 79 :   0.2857 0.0000 0.2857  plane waves:     974
 k-point 80 :   0.2959 0.0000 0.2959  plane waves:     982
 k-point 81 :   0.3061 0.0000 0.3061  plane waves:     974
 k-point 82 :   0.3163 0.0000 0.3163  plane waves:     974
 k-point 83 :   0.3265 0.0000 0.3265  plane waves:     970
 k-point 84 :   0.3367 0.0000 0.3367  plane waves:     962
 k-point 85 :   0.3469 0.0000 0.3469  plane waves:     966
 k-point 86 :   0.3571 0.0000 0.3571  plane waves:     974
 k-point 87 :   0.3673 0.0000 0.3673  plane waves:     974
 k-point 88 :   0.3776 0.0000 0.3776  plane waves:     974
 k-point 89 :   0.3878 0.0000 0.3878  plane waves:     974
 k-point 90 :   0.3980 0.0000 0.3980  plane waves:     978
 k-point 91 :   0.4082 0.0000 0.4082  plane waves:     978
 k-point 92 :   0.4184 0.0000 0.4184  plane waves:     978
 k-point 93 :   0.4286 0.0000 0.4286  plane waves:     978
 k-point 94 :   0.4388 0.0000 0.4388  plane waves:     978
 k-point 95 :   0.4490 0.0000 0.4490  plane waves:     974
 k-point 96 :   0.4592 0.0000 0.4592  plane waves:     974
 k-point 97 :   0.4694 0.0000 0.4694  plane waves:     982
 k-point 98 :   0.4796 0.0000 0.4796  plane waves:     982
 k-point 99 :   0.4898 0.0000 0.4898  plane waves:     982
 k-point ** :   0.5000 0.0000 0.5000  plane waves:     982

 maximum and minimum number of plane-waves per node :       982      941

 maximum number of plane-waves:       982
 maximum index in each direction: 
   IXMAX=    6   IYMAX=    6   IZMAX=    6
   IXMIN=   -7   IYMIN=   -7   IZMIN=   -7


 serial   3D FFT for wavefunctions
 parallel 3D FFT for charge:
    minimum data exchange during FFTs selected (reduces bandwidth)


 total amount of memory used by VASP MPI-rank0    46535. kBytes
=======================================================================

   base      :      30000. kBytes
   nonl-proj :      10515. kBytes
   fftplans  :        272. kBytes
   grid      :        626. kBytes
   one-center:         16. kBytes
   wavefun   :       5106. kBytes
 
     INWAV:  cpu time    0.2412: real time    0.2414
 initial charge density was supplied:
 number of electron       7.9999998 magnetization 
 keeping initial charge density in first step


--------------------------------------------------------------------------------------------------------


 Maximum index for augmentation-charges          721 (set IRDMAX)


--------------------------------------------------------------------------------------------------------


 First call to EWALD:  gamma=   0.499
 Maximum number of real-space cells 3x 3x 3
 Maximum number of reciprocal cells 3x 3x 3

    FEWALD:  cpu time    0.0015: real time    0.0015


--------------------------------------- Iteration      1(   1)  ---------------------------------------


    POTLOK:  cpu time    0.0049: real time    0.0050
    SETDIJ:  cpu time    0.0035: real time    0.0037
    TRIAL :  cpu time    1.0045: real time    1.0182
    CORREC:  cpu time    0.0011: real time    0.0011
    --------------------------------------------
      LOOP:  cpu time    1.0229: real time    1.0398

 eigenvalue-minimisations  :     0
 total energy-change (2. order) : 0.5455073E+02  (-0.1622730E+02)
 number of electron       7.9999998 magnetization 
 augmentation part        7.9999998 magnetization 

 Free energy of the ion-electron system (eV)
  ---------------------------------------------------
  alpha Z        PSCENC =        17.10940282
  Ewald energy   TEWEN  =      -220.32663596
  -Hartree energ DENC   =       -15.72692314
  -exchange      EXHF   =         0.00000000
  -V(xc)+E(xc)   XCENC  =       -14.32954626
  PAW double counting   =       509.64595680     -481.45250049
  entropy T*S    EENTRO =         0.00005798
  eigenvalues    EBANDS =        49.63943963
  atomic energy  EATOM  =       209.99145059
  ---------------------------------------------------
  free energy    TOTEN  =        54.55073095 eV

  energy without entropy =       54.55067297  energy(sigma->0) =       54.55071162


--------------------------------------------------------------------------------------------------------




--------------------------------------- Iteration      1(   2)  ---------------------------------------


    TRIAL :  cpu time    0.9873: real time    1.0001
    CORREC:  cpu time    0.0007: real time    0.0007
    --------------------------------------------
      LOOP:  cpu time    0.9898: real time    1.0030

 eigenvalue-minimisations  :     0
 total energy-change (2. order) :-0.1067537E+02  (-0.9821493E+01)
 number of electron       7.9999998 magnetization 
 augmentation part        7.9999998 magnetization 

 Free energy of the ion-electron system (eV)
  ---------------------------------------------------
  alpha Z        PSCENC =        17.10940282
  Ewald energy   TEWEN  =      -220.32663596
  -Hartree energ DENC   =       -15.72692314
  -exchange      EXHF   =         0.00000000
  -V(xc)+E(xc)   XCENC  =       -14.32954626
  PAW double counting   =       509.64595680     -481.45250049
  entropy T*S    EENTRO =         0.00004328
  eigenvalues    EBANDS =        38.96409760
  atomic energy  EATOM  =       209.99145059
  ---------------------------------------------------
  free energy    TOTEN  =        43.87535993 eV

  energy without entropy =       43.87531665  energy(sigma->0) =       43.87534550


--------------------------------------------------------------------------------------------------------




--------------------------------------- Iteration      1(   3)  ---------------------------------------


    TRIAL :  cpu time    0.9920: real time    1.0048
    CORREC:  cpu time    0.0007: real time    0.0019
    --------------------------------------------
      LOOP:  cpu time    0.9929: real time    1.0069

 eigenvalue-minimisations  :     0
 total energy-change (2. order) :-0.1083308E+02  (-0.1244634E+02)
 number of electron       7.9999998 magnetization 
 augmentation part        7.9999998 magnetization 

 Free energy of the ion-electron system (eV)
  ---------------------------------------------------
  alpha Z        PSCENC =        17.10940282
  Ewald energy   TEWEN  =      -220.32663596
  -Hartree energ DENC   =       -15.72692314
  -exchange      EXHF   =         0.00000000
  -V(xc)+E(xc)   XCENC  =       -14.32954626
  PAW double counting   =       509.64595680     -481.45250049
  entropy T*S    EENTRO =         0.00017064
  eigenvalues    EBANDS =        28.13103657
  atomic energy  EATOM  =       209.99145059
  ---------------------------------------------------
  free energy    TOTEN  =        33.04228419 eV

  energy without entropy =       33.04211355  energy(sigma->0) =       33.04222731


--------------------------------------------------------------------------------------------------------




--------------------------------------- Iteration      1(   4)  ---------------------------------------


    TRIAL :  cpu time    0.9872: real time    1.0003
    CORREC:  cpu time    0.0007: real time    0.0007
    --------------------------------------------
      LOOP:  cpu time    0.9893: real time    1.0041

 eigenvalue-minimisations  :     0
 total energy-change (2. order) :-0.1458397E+02  (-0.1026987E+02)
 number of electron       7.9999998 magnetization 
 augmentation part        7.9999998 magnetization 

 Free energy of the ion-electron system (eV)
  ---------------------------------------------------
  alpha Z        PSCENC =        17.10940282
  Ewald energy   TEWEN  =      -220.32663596
  -Hartree energ DENC   =       -15.72692314
  -exchange      EXHF   =         0.00000000
  -V(xc)+E(xc)   XCENC  =       -14.32954626
  PAW double counting   =       509.64595680     -481.45250049
  entropy T*S    EENTRO =         0.00011224
  eigenvalues    EBANDS =        13.54694242
  atomic energy  EATOM  =       209.99145059
  ---------------------------------------------------
  free energy    TOTEN  =        18.45831741 eV

  energy without entropy =       18.45820517  energy(sigma->0) =       18.45827999


--------------------------------------------------------------------------------------------------------




--------------------------------------- Iteration      1(   5)  ---------------------------------------


    TRIAL :  cpu time    0.9805: real time    0.9931
    CORREC:  cpu time    0.0007: real time    0.0007
    --------------------------------------------
      LOOP:  cpu time    0.9821: real time    0.9947

 eigenvalue-minimisations  :     0
 total energy-change (2. order) :-0.9259098E+01  (-0.7979829E+01)
 number of electron       7.9999998 magnetization 
 augmentation part        7.9999998 magnetization 

 Free energy of the ion-electron system (eV)
  ---------------------------------------------------
  alpha Z        PSCENC =        17.10940282
  Ewald energy   TEWEN  =      -220.32663596
  -Hartree energ DENC   =       -15.72692314
  -exchange      EXHF   =         0.00000000
  -V(xc)+E(xc)   XCENC  =       -14.32954626
  PAW double counting   =       509.64595680     -481.45250049
  entropy T*S    EENTRO =        -0.00008363
  eigenvalues    EBANDS =         4.28790249
  atomic energy  EATOM  =       209.99145059
  ---------------------------------------------------
  free energy    TOTEN  =         9.19921908 eV

  energy without entropy =        9.19930271  energy(sigma->0) =        9.19924696


--------------------------------------------------------------------------------------------------------




--------------------------------------- Iteration      1(   6)  ---------------------------------------


    TRIAL :  cpu time    0.9803: real time    0.9927
    CORREC:  cpu time    0.0007: real time    0.0007
    --------------------------------------------
      LOOP:  cpu time    0.9812: real time    0.9936

 eigenvalue-minimisations  :     0
 total energy-change (2. order) :-0.6733939E+01  (-0.3468391E+01)
 number of electron       7.9999998 magnetization 
 augmentation part        7.9999998 magnetization 

 Free energy of the ion-electron system (eV)
  ---------------------------------------------------
  alpha Z        PSCENC =        17.10940282
  Ewald energy   TEWEN  =      -220.32663596
  -Hartree energ DENC   =       -15.72692314
  -exchange      EXHF   =         0.00000000
  -V(xc)+E(xc)   XCENC  =       -14.32954626
  PAW double counting   =       509.64595680     -481.45250049
  entropy T*S    EENTRO =         0.00006516
  eigenvalues    EBANDS =        -2.44584104
  atomic energy  EATOM  =       209.99145059
  ---------------------------------------------------
  free energy    TOTEN  =         2.46527967 eV

  energy without entropy =        2.46521451  energy(sigma->0) =        2.46525795


--------------------------------------------------------------------------------------------------------




--------------------------------------- Iteration      1(   7)  ---------------------------------------


    TRIAL :  cpu time    1.0004: real time    1.0127
    CORREC:  cpu time    0.0008: real time    0.0008
    --------------------------------------------
      LOOP:  cpu time    1.0013: real time    1.0136

 eigenvalue-minimisations  :     0
 total energy-change (2. order) :-0.2801947E+01  (-0.1524676E+01)
 number of electron       7.9999998 magnetization 
 augmentation part        7.9999998 magnetization 

 Free energy of the ion-electron system (eV)
  ---------------------------------------------------
  alpha Z        PSCENC =        17.10940282
  Ewald energy   TEWEN  =      -220.32663596
  -Hartree energ DENC   =       -15.72692314
  -exchange      EXHF   =         0.00000000
  -V(xc)+E(xc)   XCENC  =       -14.32954626
  PAW double counting   =       509.64595680     -481.45250049
  entropy T*S    EENTRO =        -0.00006415
  eigenvalues    EBANDS =        -5.24793662
  atomic energy  EATOM  =       209.99145059
  ---------------------------------------------------
  free energy    TOTEN  =        -0.33666711 eV

  energy without entropy =       -0.33660296  energy(sigma->0) =       -0.33664573


--------------------------------------------------------------------------------------------------------




--------------------------------------- Iteration      1(   8)  ---------------------------------------


    TRIAL :  cpu time    0.9830: real time    0.9953
    CORREC:  cpu time    0.0007: real time    0.0007
    --------------------------------------------
      LOOP:  cpu time    0.9850: real time    0.9984

 eigenvalue-minimisations  :     0
 total energy-change (2. order) :-0.1322826E+01  (-0.7224750E+00)
 number of electron       7.9999998 magnetization 
 augmentation part        7.9999998 magnetization 

 Free energy of the ion-electron system (eV)
  ---------------------------------------------------
  alpha Z        PSCENC =        17.10940282
  Ewald energy   TEWEN  =      -220.32663596
  -Hartree energ DENC   =       -15.72692314
  -exchange      EXHF   =         0.00000000
  -V(xc)+E(xc)   XCENC  =       -14.32954626
  PAW double counting   =       509.64595680     -481.45250049
  entropy T*S    EENTRO =         0.00016761
  eigenvalues    EBANDS =        -6.57063370
  atomic energy  EATOM  =       209.99145059
  ---------------------------------------------------
  free energy    TOTEN  =        -1.65949351 eV

  energy without entropy =       -1.65966111  energy(sigma->0) =       -1.65954937


--------------------------------------------------------------------------------------------------------




--------------------------------------- Iteration      1(   9)  ---------------------------------------


    TRIAL :  cpu time    0.9807: real time    0.9929
    CORREC:  cpu time    0.0007: real time    0.0007
    --------------------------------------------
      LOOP:  cpu time    0.9816: real time    0.9938

 eigenvalue-minimisations  :     0
 total energy-change (2. order) :-0.6120374E+00  (-0.3262625E+00)
 number of electron       7.9999998 magnetization 
 augmentation part        7.9999998 magnetization 

 Free energy of the ion-electron system (eV)
  ---------------------------------------------------
  alpha Z        PSCENC =        17.10940282
  Ewald energy   TEWEN  =      -220.32663596
  -Hartree energ DENC   =       -15.72692314
  -exchange      EXHF   =         0.00000000
  -V(xc)+E(xc)   XCENC  =       -14.32954626
  PAW double counting   =       509.64595680     -481.45250049
  entropy T*S    EENTRO =         0.00019615
  eigenvalues    EBANDS =        -7.18290290
  atomic energy  EATOM  =       209.99145059
  ---------------------------------------------------
  free energy    TOTEN  =        -2.27153094 eV

  energy without entropy =       -2.27172709  energy(sigma->0) =       -2.27159633


--------------------------------------------------------------------------------------------------------




--------------------------------------- Iteration      1(  10)  ---------------------------------------


    TRIAL :  cpu time    0.9805: real time    0.9928
    CORREC:  cpu time    0.0007: real time    0.0007
    --------------------------------------------
      LOOP:  cpu time    0.9814: real time    0.9938

 eigenvalue-minimisations  :     0
 total energy-change (2. order) :-0.2777858E+00  (-0.1424193E+00)
 number of electron       7.9999998 magnetization 
 augmentation part        7.9999998 magnetization 

 Free energy of the ion-electron system (eV)
  ---------------------------------------------------
  alpha Z        PSCENC =        17.10940282
  Ewald energy   TEWEN  =      -220.32663596
  -Hartree energ DENC   =       -15.72692314
  -exchange      EXHF   =         0.00000000
  -V(xc)+E(xc)   XCENC  =       -14.32954626
  PAW double counting   =       509.64595680     -481.45250049
  entropy T*S    EENTRO =         0.00023177
  eigenvalues    EBANDS =        -7.46071721
  atomic energy  EATOM  =       209.99145059
  ---------------------------------------------------
  free energy    TOTEN  =        -2.54931672 eV

  energy without entropy =       -2.54954849  energy(sigma->0) =       -2.54939397


--------------------------------------------------------------------------------------------------------




--------------------------------------- Iteration      1(  11)  ---------------------------------------


    TRIAL :  cpu time    0.9801: real time    0.9923
    CORREC:  cpu time    0.0007: real time    0.0007
    --------------------------------------------
      LOOP:  cpu time    0.9810: real time    0.9932

 eigenvalue-minimisations  :     0
 total energy-change (2. order) :-0.1181434E+00  (-0.5708984E-01)
 number of electron       7.9999998 magnetization 
 augmentation part        7.9999998 magnetization 

 Free energy of the ion-electron system (eV)
  ---------------------------------------------------
  alpha Z        PSCENC =        17.10940282
  Ewald energy   TEWEN  =      -220.32663596
  -Hartree energ DENC   =       -15.72692314
  -exchange      EXHF   =         0.00000000
  -V(xc)+E(xc)   XCENC  =       -14.32954626
  PAW double counting   =       509.64595680     -481.45250049
  entropy T*S    EENTRO =         0.00063568
  eigenvalues    EBANDS =        -7.57889626
  atomic energy  EATOM  =       209.99145059
  ---------------------------------------------------
  free energy    TOTEN  =        -2.66746014 eV

  energy without entropy =       -2.66809582  energy(sigma->0) =       -2.66767204


--------------------------------------------------------------------------------------------------------




--------------------------------------- Iteration      1(  12)  ---------------------------------------


    TRIAL :  cpu time    1.0006: real time    1.0128
    CORREC:  cpu time    0.0008: real time    0.0008
    --------------------------------------------
      LOOP:  cpu time    1.0015: real time    1.0137

 eigenvalue-minimisations  :     0
 total energy-change (2. order) :-0.4594882E-01  (-0.2099817E-01)
 number of electron       7.9999998 magnetization 
 augmentation part        7.9999998 magnetization 

 Free energy of the ion-electron system (eV)
  ---------------------------------------------------
  alpha Z        PSCENC =        17.10940282
  Ewald energy   TEWEN  =      -220.32663596
  -Hartree energ DENC   =       -15.72692314
  -exchange      EXHF   =         0.00000000
  -V(xc)+E(xc)   XCENC  =       -14.32954626
  PAW double counting   =       509.64595680     -481.45250049
  entropy T*S    EENTRO =         0.00062785
  eigenvalues    EBANDS =        -7.62524899
  atomic energy  EATOM  =       209.99145059
  ---------------------------------------------------
  free energy    TOTEN  =        -2.71340896 eV

  energy without entropy =       -2.71403681  energy(sigma->0) =       -2.71361825


--------------------------------------------------------------------------------------------------------




--------------------------------------- Iteration      1(  13)  ---------------------------------------


    TRIAL :  cpu time    0.9845: real time    0.9971
    CORREC:  cpu time    0.0007: real time    0.0007
    --------------------------------------------
      LOOP:  cpu time    0.9865: real time    1.0002

 eigenvalue-minimisations  :     0
 total energy-change (2. order) :-0.1670633E-01  (-0.7218525E-02)
 number of electron       7.9999998 magnetization 
 augmentation part        7.9999998 magnetization 

 Free energy of the ion-electron system (eV)
  ---------------------------------------------------
  alpha Z        PSCENC =        17.10940282
  Ewald energy   TEWEN  =      -220.32663596
  -Hartree energ DENC   =       -15.72692314
  -exchange      EXHF   =         0.00000000
  -V(xc)+E(xc)   XCENC  =       -14.32954626
  PAW double counting   =       509.64595680     -481.45250049
  entropy T*S    EENTRO =         0.00036607
  eigenvalues    EBANDS =        -7.64194749
  atomic energy  EATOM  =       209.99145059
  ---------------------------------------------------
  free energy    TOTEN  =        -2.73011530 eV

  energy without entropy =       -2.73048137  energy(sigma->0) =       -2.73023732


--------------------------------------------------------------------------------------------------------




--------------------------------------- Iteration      1(  14)  ---------------------------------------


    TRIAL :  cpu time    0.9810: real time    0.9936
    CORREC:  cpu time    0.0007: real time    0.0007
    --------------------------------------------
      LOOP:  cpu time    0.9819: real time    0.9945

 eigenvalue-minimisations  :     0
 total energy-change (2. order) :-0.5725749E-02  (-0.2262588E-02)
 number of electron       7.9999998 magnetization 
 augmentation part        7.9999998 magnetization 

 Free energy of the ion-electron system (eV)
  ---------------------------------------------------
  alpha Z        PSCENC =        17.10940282
  Ewald energy   TEWEN  =      -220.32663596
  -Hartree energ DENC   =       -15.72692314
  -exchange      EXHF   =         0.00000000
  -V(xc)+E(xc)   XCENC  =       -14.32954626
  PAW double counting   =       509.64595680     -481.45250049
  entropy T*S    EENTRO =         0.00036474
  eigenvalues    EBANDS =        -7.64741147
  atomic energy  EATOM  =       209.99145059
  ---------------------------------------------------
  free energy    TOTEN  =        -2.73584105 eV

  energy without entropy =       -2.73620579  energy(sigma->0) =       -2.73596263


--------------------------------------------------------------------------------------------------------




--------------------------------------- Iteration      1(  15)  ---------------------------------------


    TRIAL :  cpu time    0.9804: real time    0.9926
    CORREC:  cpu time    0.0007: real time    0.0007
    --------------------------------------------
      LOOP:  cpu time    0.9813: real time    0.9935

 eigenvalue-minimisations  :     0
 total energy-change (2. order) :-0.1723659E-02  (-0.6578821E-03)
 number of electron       7.9999998 magnetization 
 augmentation part        7.9999998 magnetization 

 Free energy of the ion-electron system (eV)
  ---------------------------------------------------
  alpha Z        PSCENC =        17.10940282
  Ewald energy   TEWEN  =      -220.32663596
  -Hartree energ DENC   =       -15.72692314
  -exchange      EXHF   =         0.00000000
  -V(xc)+E(xc)   XCENC  =       -14.32954626
  PAW double counting   =       509.64595680     -481.45250049
  entropy T*S    EENTRO =         0.00059672
  eigenvalues    EBANDS =        -7.64913379
  atomic energy  EATOM  =       209.99145059
  ---------------------------------------------------
  free energy    TOTEN  =        -2.73756470 eV

  energy without entropy =       -2.73816143  energy(sigma->0) =       -2.73776361


--------------------------------------------------------------------------------------------------------




--------------------------------------- Iteration      1(  16)  ---------------------------------------


    TRIAL :  cpu time    0.9805: real time    0.9928
    CORREC:  cpu time    0.0008: real time    0.0008
    --------------------------------------------
      LOOP:  cpu time    0.9815: real time    0.9937

 eigenvalue-minimisations  :     0
 total energy-change (2. order) :-0.3269374E-03  (-0.1701875E-03)
 number of electron       7.9999998 magnetization 
 augmentation part        7.9999998 magnetization 

 Free energy of the ion-electron system (eV)
  ---------------------------------------------------
  alpha Z        PSCENC =        17.10940282
  Ewald energy   TEWEN  =      -220.32663596
  -Hartree energ DENC   =       -15.72692314
  -exchange      EXHF   =         0.00000000
  -V(xc)+E(xc)   XCENC  =       -14.32954626
  PAW double counting   =       509.64595680     -481.45250049
  entropy T*S    EENTRO =         0.00059524
  eigenvalues    EBANDS =        -7.64969271
  atomic energy  EATOM  =       209.99145059
  ---------------------------------------------------
  free energy    TOTEN  =        -2.73789164 eV

  energy without entropy =       -2.73848688  energy(sigma->0) =       -2.73809005


--------------------------------------------------------------------------------------------------------




--------------------------------------- Iteration      1(  17)  ---------------------------------------


    TRIAL :  cpu time    0.9950: real time    1.0077
    CORREC:  cpu time    0.0007: real time    0.0007
    --------------------------------------------
      LOOP:  cpu time    0.9959: real time    1.0086

 eigenvalue-minimisations  :     0
 total energy-change (2. order) :-0.1225068E-03  (-0.3824502E-04)
 number of electron       7.9999998 magnetization 
 augmentation part        7.9999998 magnetization 

 Free energy of the ion-electron system (eV)
  ---------------------------------------------------
  alpha Z        PSCENC =        17.10940282
  Ewald energy   TEWEN  =      -220.32663596
  -Hartree energ DENC   =       -15.72692314
  -exchange      EXHF   =         0.00000000
  -V(xc)+E(xc)   XCENC  =       -14.32954626
  PAW double counting   =       509.64595680     -481.45250049
  entropy T*S    EENTRO =         0.00036220
  eigenvalues    EBANDS =        -7.64981373
  atomic energy  EATOM  =       209.99145059
  ---------------------------------------------------
  free energy    TOTEN  =        -2.73801415 eV

  energy without entropy =       -2.73837635  energy(sigma->0) =       -2.73813488


--------------------------------------------------------------------------------------------------------




--------------------------------------- Iteration      1(  18)  ---------------------------------------


    TRIAL :  cpu time    0.9813: real time    0.9935
    CORREC:  cpu time    0.0007: real time    0.0007
    --------------------------------------------
      LOOP:  cpu time    0.9822: real time    0.9944

 eigenvalue-minimisations  :     0
 total energy-change (2. order) :-0.1897973E-03  (-0.6557086E-05)
 number of electron       7.9999998 magnetization 
 augmentation part        7.9999998 magnetization 

 Free energy of the ion-electron system (eV)
  ---------------------------------------------------
  alpha Z        PSCENC =        17.10940282
  Ewald energy   TEWEN  =      -220.32663596
  -Hartree energ DENC   =       -15.72692314
  -exchange      EXHF   =         0.00000000
  -V(xc)+E(xc)   XCENC  =       -14.32954626
  PAW double counting   =       509.64595680     -481.45250049
  entropy T*S    EENTRO =         0.00059420
  eigenvalues    EBANDS =        -7.64977050
  atomic energy  EATOM  =       209.99145059
  ---------------------------------------------------
  free energy    TOTEN  =        -2.73820395 eV

  energy without entropy =       -2.73879815  energy(sigma->0) =       -2.73840201


--------------------------------------------------------------------------------------------------------




--------------------------------------- Iteration      1(  19)  ---------------------------------------


    TRIAL :  cpu time    0.9805: real time    0.9926
    CORREC:  cpu time    0.0007: real time    0.0007
    --------------------------------------------
      LOOP:  cpu time    0.9813: real time    0.9935

 eigenvalue-minimisations  :     0
 total energy-change (2. order) : 0.1601112E-03  (-0.4697070E-06)
 number of electron       7.9999998 magnetization 
 augmentation part        7.9999998 magnetization 

 Free energy of the ion-electron system (eV)
  ---------------------------------------------------
  alpha Z        PSCENC =        17.10940282
  Ewald energy   TEWEN  =      -220.32663596
  -Hartree energ DENC   =       -15.72692314
  -exchange      EXHF   =         0.00000000
  -V(xc)+E(xc)   XCENC  =       -14.32954626
  PAW double counting   =       509.64595680     -481.45250049
  entropy T*S    EENTRO =         0.00059408
  eigenvalues    EBANDS =        -7.64984238
  atomic energy  EATOM  =       209.99145059
  ---------------------------------------------------
  free energy    TOTEN  =        -2.73804383 eV

  energy without entropy =       -2.73863791  energy(sigma->0) =       -2.73824186


--------------------------------------------------------------------------------------------------------




--------------------------------------- Iteration      1(  20)  ---------------------------------------


    TRIAL :  cpu time    0.9979: real time    1.0101
    CORREC:  cpu time    0.0008: real time    0.0008
    EDDIAG:  cpu time    0.6473: real time    0.6611
    --------------------------------------------
      LOOP:  cpu time    1.6462: real time    1.6723

 eigenvalue-minimisations  :     0
 total energy-change (2. order) : 0.1792614E-08  ( 0.1064994E-06)
 number of electron       7.9999998 magnetization 
 augmentation part        7.9999998 magnetization 

 Free energy of the ion-electron system (eV)
  ---------------------------------------------------
  alpha Z        PSCENC =        17.10940282
  Ewald energy   TEWEN  =      -220.32663596
  -Hartree energ DENC   =       -15.72692314
  -exchange      EXHF   =         0.00000000
  -V(xc)+E(xc)   XCENC  =       -14.32954626
  PAW double counting   =       509.64595680     -481.45250049
  entropy T*S    EENTRO =         0.00059405
  eigenvalues    EBANDS =        -7.64984226
  atomic energy  EATOM  =       209.99145059
  ---------------------------------------------------
  free energy    TOTEN  =        -2.73804383 eV

  energy without entropy =       -2.73863788  energy(sigma->0) =       -2.73824185


--------------------------------------------------------------------------------------------------------


  average scaling for gradient   1.5760


 average (electrostatic) potential at core
  the test charge radii are     1.1631
  (the norm of the test charge is              1.0000)
       1 -32.8273       2 -32.8273
 
 
 
 E-fermi :   3.7222     XC(G=0):  -9.1614     alpha+bet : -9.2781


 k-point     1 :       0.5000    0.5000    0.5000
  band No.  band energies     occupation 
      1      -6.8582      2.00000
      2      -3.8453      2.00000
      3       2.2543      2.00000
      4       2.2543      2.00000
      5       4.0994     -0.00000
      6       7.5159      0.00000
      7       7.5159      0.00000
      8      10.9603      0.00000
      9      14.4013      0.00000
     10      14.9915      0.00000
     11      15.0011      0.00000
     12      15.0011      0.00000
     13      16.0642      0.00000
     14      16.0642      0.00000
     15      22.6339      0.00000
     16      23.8708      0.00000
     17      25.3376      0.00000
     18      25.3376      0.00000
     19      25.4888      0.00000
     20      25.4888      0.00000
     21      28.8083      0.00000
     22      29.9955      0.00000
     23      30.2754      0.00000
     24      30.2754      0.00000
     25      30.8735      0.00000
     26      30.8735      0.00000
     27      31.6979      0.00000
     28      35.1490      0.00000
     29      35.1490      0.00000
     30      35.3175      0.00000
     31      35.3175      0.00000
     32      36.1418      0.00000
     33      37.2530      0.00000
     34      37.4012      0.00000
     35      42.5109      0.00000
     36      42.5110      0.00000
     37      42.7711      0.00000
     38      43.7355      0.00000
     39      43.7356      0.00000
     40      44.7239      0.00000
     41      48.2165      0.00000
     42      48.2515      0.00000
     43      50.3505      0.00000
     44      50.7011      0.00000
     45      51.1584      0.00000
     46      54.1817      0.00000
     47      54.4360      0.00000
     48      56.7836      0.00000
     49      58.7943      0.00000
     50      58.9289      0.00000
     51      58.9386      0.00000
     52      62.9406      0.00000
     53      63.8990      0.00000
     54      64.2518      0.00000
     55      68.8738      0.00000
     56      69.1573      0.00000

 k-point     2 :       0.4898    0.4898    0.4898
  band No.  band energies     occupation 
      1      -6.8631      2.00000
      2      -3.8377      2.00000
      3       2.2552      2.00000
      4       2.2552      2.00000
      5       4.1003     -0.00000
      6       7.5162      0.00000
      7       7.5162      0.00000
      8      10.9615      0.00000
      9      14.3341      0.00000
     10      14.9637      0.00000
     11      14.9637      0.00000
     12      15.0570      0.00000
     13      16.1054      0.00000
     14      16.1054      0.00000
     15      22.5630      0.00000
     16      23.9467      0.00000
     17      25.1061      0.00000
     18      25.1061      0.00000
     19      25.7222      0.00000
     20      25.7222      0.00000
     21      28.7277      0.00000
     22      30.0768      0.00000
     23      30.2741      0.00000
     24      30.2741      0.00000
     25      30.8717      0.00000
     26      30.8717      0.00000
     27      31.6955      0.00000
     28      35.1506      0.00000
     29      35.1506      0.00000
     30      35.3247      0.00000
     31      35.3247      0.00000
     32      36.1338      0.00000
     33      37.2583      0.00000
     34      37.4140      0.00000
     35      42.5110      0.00000
     36      42.5110      0.00000
     37      42.7723      0.00000
     38      43.7348      0.00000
     39      43.7348      0.00000
     40      44.7245      0.00000
     41      48.0538      0.00000
     42      48.0637      0.00000
     43      50.1468      0.00000
     44      50.4430      0.00000
     45      50.7394      0.00000
     46      54.1990      0.00000
     47      54.2546      0.00000
     48      55.9277      0.00000
     49      57.6776      0.00000
     50      58.6757      0.00000
     51      58.7117      0.00000
     52      62.5862      0.00000
     53      63.8076      0.00000
     54      63.9410      0.00000
     55      68.2484      0.00000
     56      68.7249      0.00000

 k-point     3 :       0.4796    0.4796    0.4796
  band No.  band energies     occupation 
      1      -6.8776      2.00000
      2      -3.8153      2.00000
      3       2.2580      2.00000
      4       2.2580      2.00000
      5       4.1028     -0.00000
      6       7.5173      0.00000
      7       7.5173      0.00000
      8      10.9651      0.00000
      9      14.1823      0.00000
     10      14.8653      0.00000
     11      14.8653      0.00000
     12      15.2034      0.00000
     13      16.2152      0.00000
     14      16.2152      0.00000
     15      22.3872      0.00000
     16      24.1374      0.00000
     17      24.8150      0.00000
     18      24.8150      0.00000
     19      26.0184      0.00000
     20      26.0184      0.00000
     21      28.5305      0.00000
     22      30.2702      0.00000
     23      30.2702      0.00000
     24      30.2760      0.00000
     25      30.8659      0.00000
     26      30.8659      0.00000
     27      31.6882      0.00000
     28      35.1556      0.00000
     29      35.1556      0.00000
     30      35.3455      0.00000
     31      35.3455      0.00000
     32      36.1110      0.00000
     33      37.2742      0.00000
     34      37.4510      0.00000
     35      42.5117      0.00000
     36      42.5140      0.00000
     37      42.7749      0.00000
     38      43.7328      0.00000
     39      43.7329      0.00000
     40      44.7246      0.00000
     41      47.8157      0.00000
     42      47.8224      0.00000
     43      49.7987      0.00000
     44      50.1108      0.00000
     45      50.1126      0.00000
     46      52.8651      0.00000
     47      53.5509      0.00000
     48      54.4945      0.00000
     49      56.4890      0.00000
     50      58.1951      0.00000
     51      59.3000      0.00000
     52      59.6345      0.00000
     53      62.8046      0.00000
     54      63.9475      0.00000
     55      66.4879      0.00000
     56      66.5706      0.00000

 k-point     4 :       0.4694    0.4694    0.4694
  band No.  band energies     occupation 
      1      -6.9013      2.00000
      2      -3.7784      2.00000
      3       2.2626      2.00000
      4       2.2626      2.00000
      5       4.1069     -0.00000
      6       7.5189      0.00000
      7       7.5189      0.00000
      8      10.9710      0.00000
      9      13.9990      0.00000
     10      14.7304      0.00000
     11      14.7304      0.00000
     12      15.3772      0.00000
     13      16.3692      0.00000
     14      16.3692      0.00000
     15      22.1615      0.00000
     16      24.3880      0.00000
     17      24.5230      0.00000
     18      24.5230      0.00000
     19      26.3188      0.00000
     20      26.3188      0.00000
     21      28.2787      0.00000
     22      30.2639      0.00000
     23      30.2640      0.00000
     24      30.5310      0.00000
     25      30.8566      0.00000
     26      30.8566      0.00000
     27      31.6763      0.00000
     28      35.1655      0.00000
     29      35.1666      0.00000
     30      35.3787      0.00000
     31      35.3789      0.00000
     32      36.0766      0.00000
     33      37.3053      0.00000
     34      37.5098      0.00000
     35      42.6075      0.00000
     36      42.6674      0.00000
     37      42.9223      0.00000
     38      43.8025      0.00000
     39      43.9598      0.00000
     40      44.5137      0.00000
     41      47.5349      0.00000
     42      47.7020      0.00000
     43      50.0008      0.00000
     44      50.8607      0.00000
     45      52.1304      0.00000
     46      52.9393      0.00000
     47      53.7025      0.00000
     48      55.8944      0.00000
     49      58.4576      0.00000
     50      58.9316      0.00000
     51      59.8152      0.00000
     52      59.8982      0.00000
     53      62.0077      0.00000
     54      63.8427      0.00000
     55      64.3587      0.00000
     56      69.2342      0.00000

 k-point     5 :       0.4592    0.4592    0.4592
  band No.  band energies     occupation 
      1      -6.9335      2.00000
      2      -3.7277      2.00000
      3       2.2691      2.00000
      4       2.2691      2.00000
      5       4.1128     -0.00000
      6       7.5211      0.00000
      7       7.5211      0.00000
      8      10.9790      0.00000
      9      13.8038      0.00000
     10      14.5769      0.00000
     11      14.5769      0.00000
     12      15.5580      0.00000
     13      16.5493      0.00000
     14      16.5493      0.00000
     15      21.9173      0.00000
     16      24.2325      0.00000
     17      24.2325      0.00000
     18      24.6671      0.00000
     19      26.6205      0.00000
     20      26.6205      0.00000
     21      28.0048      0.00000
     22      30.2555      0.00000
     23      30.2555      0.00000
     24      30.8097      0.00000
     25      30.8439      0.00000
     26      30.8439      0.00000
     27      31.6596      0.00000
     28      35.1810      0.00000
     29      35.1810      0.00000
     30      35.4226      0.00000
     31      35.4226      0.00000
     32      36.0350      0.00000
     33      37.3373      0.00000
     34      37.5859      0.00000
     35      42.5104      0.00000
     36      42.5104      0.00000
     37      42.7892      0.00000
     38      43.7188      0.00000
     39      43.7189      0.00000
     40      44.7335      0.00000
     41      47.2245      0.00000
     42      47.2250      0.00000
     43      49.7022      0.00000
     44      50.3972      0.00000
     45      50.4374      0.00000
     46      53.4800      0.00000
     47      53.6545      0.00000
     48      54.9472      0.00000
     49      55.8968      0.00000
     50      57.6075      0.00000
     51      57.7406      0.00000
     52      57.8893      0.00000
     53      61.3590      0.00000
     54      63.7348      0.00000
     55      66.4647      0.00000
     56      66.7431      0.00000

 k-point     6 :       0.4490    0.4490    0.4490
  band No.  band energies     occupation 
      1      -6.9733      2.00000
      2      -3.6641      2.00000
      3       2.2774      2.00000
      4       2.2774      2.00000
      5       4.1203     -0.00000
      6       7.5238      0.00000
      7       7.5238      0.00000
      8      10.9891      0.00000
      9      13.6037      0.00000
     10      14.4148      0.00000
     11      14.4148      0.00000
     12      15.7374      0.00000
     13      16.7458      0.00000
     14      16.7458      0.00000
     15      21.6699      0.00000
     16      23.9442      0.00000
     17      23.9442      0.00000
     18      24.9591      0.00000
     19      26.9225      0.00000
     20      26.9225      0.00000
     21      27.7241      0.00000
     22      30.2454      0.00000
     23      30.2454      0.00000
     24      30.8283      0.00000
     25      30.8283      0.00000
     26      31.0973      0.00000
     27      31.6386      0.00000
     28      35.2033      0.00000
     29      35.2033      0.00000
     30      35.4762      0.00000
     31      35.4762      0.00000
     32      35.9908      0.00000
     33      37.3841      0.00000
     34      37.6766      0.00000
     35      42.5102      0.00000
     36      42.5102      0.00000
     37      42.7994      0.00000
     38      43.7053      0.00000
     39      43.7053      0.00000
     40      44.7389      0.00000
     41      46.8998      0.00000
     42      46.8999      0.00000
     43      49.4387      0.00000
     44      50.2570      0.00000
     45      50.4700      0.00000
     46      52.7764      0.00000
     47      53.0132      0.00000
     48      54.8409      0.00000
     49      56.0543      0.00000
     50      56.6275      0.00000
     51      57.5266      0.00000
     52      58.4642      0.00000
     53      61.2985      0.00000
     54      62.6964      0.00000
     55      63.2939      0.00000
[...]
     20      24.5247      0.00000
     21      24.5326      0.00000
     22      25.1726      0.00000
     23      30.1542      0.00000
     24      31.4960      0.00000
     25      32.0763      0.00000
     26      32.0968      0.00000
     27      34.3179      0.00000
     28      36.0451      0.00000
     29      36.2780      0.00000
     30      37.2438      0.00000
     31      38.9883      0.00000
     32      39.1168      0.00000
     33      39.2847      0.00000
     34      40.3107      0.00000
     35      41.5687      0.00000
     36      41.6475      0.00000
     37      42.6212      0.00000
     38      44.3619      0.00000
     39      44.7948      0.00000
     40      47.4409      0.00000
     41      48.9980      0.00000
     42      50.7896      0.00000
     43      51.7348      0.00000
     44      52.8964      0.00000
     45      53.7031      0.00000
     46      54.8521      0.00000
     47      56.8098      0.00000
     48      56.8578      0.00000
     49      57.5588      0.00000
     50      61.3771      0.00000
     51      65.4300      0.00000
     52      67.6590      0.00000
     53      67.9982      0.00000
     54      73.2570      0.00000
     55      73.7006      0.00000
     56      75.6985      0.00000

 k-point    96 :       0.4592    0.0000    0.4592
  band No.  band energies     occupation 
      1      -5.6492      2.00000
      2      -4.4493      2.00000
      3       0.5971      2.00000
      4       0.5971      2.00000
      5       4.4394     -0.00000
      6       4.7705     -0.00000
      7      13.0488      0.00000
      8      13.0488      0.00000
      9      14.7684      0.00000
     10      16.0580      0.00000
     11      16.7026      0.00000
     12      16.7080      0.00000
     13      16.7080      0.00000
     14      18.0644      0.00000
     15      21.6526      0.00000
     16      21.6526      0.00000
     17      21.7384      0.00000
     18      22.5064      0.00000
     19      24.1296      0.00000
     20      24.1869      0.00000
     21      24.1944      0.00000
     22      24.8365      0.00000
     23      30.2976      0.00000
     24      31.3721      0.00000
     25      32.1257      0.00000
     26      32.1500      0.00000
     27      34.7635      0.00000
     28      35.9669      0.00000
     29      36.1722      0.00000
     30      37.3428      0.00000
     31      38.9388      0.00000
     32      39.1164      0.00000
     33      39.1812      0.00000
     34      40.2739      0.00000
     35      41.5034      0.00000
     36      41.5308      0.00000
     37      42.5340      0.00000
     38      44.3761      0.00000
     39      44.9206      0.00000
     40      47.7369      0.00000
     41      49.3832      0.00000
     42      50.3982      0.00000
     43      51.7065      0.00000
     44      52.5718      0.00000
     45      53.6833      0.00000
     46      55.5660      0.00000
     47      56.9208      0.00000
     48      57.1245      0.00000
     49      57.4859      0.00000
     50      61.3106      0.00000
     51      65.3413      0.00000
     52      67.0801      0.00000
     53      68.2522      0.00000
     54      73.4971      0.00000
     55      74.5861      0.00000
     56      74.8165      0.00000

 k-point    97 :       0.4694    0.0000    0.4694
  band No.  band energies     occupation 
      1      -5.5073      2.00000
      2      -4.6070      2.00000
      3       0.5845      2.00000
      4       0.5845      2.00000
      5       4.4655     -0.00000
      6       4.7138     -0.00000
      7      13.1421      0.00000
      8      13.1421      0.00000
      9      14.9537      0.00000
     10      15.9312      0.00000
     11      16.6016      0.00000
     12      16.6016      0.00000
     13      16.8605      0.00000
     14      17.8818      0.00000
     15      21.9531      0.00000
     16      21.9531      0.00000
     17      22.0156      0.00000
     18      22.7436      0.00000
     19      23.8174      0.00000
     20      23.8533      0.00000
     21      23.8603      0.00000
     22      24.5080      0.00000
     23      30.4369      0.00000
     24      31.2466      0.00000
     25      32.1656      0.00000
     26      32.1938      0.00000
     27      35.2094      0.00000
     28      35.8985      0.00000
     29      36.0736      0.00000
     30      37.4350      0.00000
     31      38.8825      0.00000
     32      39.0950      0.00000
     33      39.1146      0.00000
     34      40.2644      0.00000
     35      41.3987      0.00000
     36      41.4357      0.00000
     37      42.4320      0.00000
     38      44.2720      0.00000
     39      45.1631      0.00000
     40      47.8058      0.00000
     41      49.1186      0.00000
     42      49.9304      0.00000
     43      51.6035      0.00000
     44      52.4443      0.00000
     45      53.5556      0.00000
     46      56.5021      0.00000
     47      56.6176      0.00000
     48      56.8292      0.00000
     49      58.5020      0.00000
     50      61.4692      0.00000
     51      65.1612      0.00000
     52      66.6974      0.00000
     53      68.6238      0.00000
     54      73.5928      0.00000
     55      73.6888      0.00000
     56      75.4124      0.00000

 k-point    98 :       0.4796    0.0000    0.4796
  band No.  band energies     occupation 
      1      -5.3630      2.00000
      2      -4.7626      2.00000
      3       0.5755      2.00000
      4       0.5755      2.00000
      5       4.4959     -0.00000
      6       4.6614     -0.00000
      7      13.2123      0.00000
      8      13.2123      0.00000
      9      15.1345      0.00000
     10      15.7911      0.00000
     11      16.5219      0.00000
     12      16.5219      0.00000
     13      17.0219      0.00000
     14      17.7028      0.00000
     15      22.2587      0.00000
     16      22.2587      0.00000
     17      22.2981      0.00000
     18      22.9924      0.00000
     19      23.5149      0.00000
     20      23.5260      0.00000
     21      23.5309      0.00000
     22      24.1886      0.00000
     23      30.5731      0.00000
     24      31.1202      0.00000
     25      32.1962      0.00000
     26      32.2285      0.00000
     27      35.6474      0.00000
     28      35.8644      0.00000
     29      36.0089      0.00000
     30      37.5334      0.00000
     31      38.8311      0.00000
     32      39.0387      0.00000
     33      39.1248      0.00000
     34      40.2480      0.00000
     35      41.2553      0.00000
     36      41.7167      0.00000
     37      42.2769      0.00000
     38      44.3086      0.00000
     39      45.3894      0.00000
     40      48.0019      0.00000
     41      48.3839      0.00000
     42      50.5975      0.00000
     43      51.5967      0.00000
     44      52.9180      0.00000
     45      53.6475      0.00000
     46      56.2178      0.00000
     47      56.7680      0.00000
     48      57.8353      0.00000
     49      59.0434      0.00000
     50      61.5311      0.00000
     51      64.9994      0.00000
     52      66.1727      0.00000
     53      68.9099      0.00000
     54      72.6854      0.00000
     55      73.9840      0.00000
     56      76.1135      0.00000

 k-point    99 :       0.4898    0.0000    0.4898
  band No.  band energies     occupation 
      1      -5.2163      2.00000
      2      -4.9160      2.00000
      3       0.5700      2.00000
      4       0.5700      2.00000
      5       4.5307     -0.00000
      6       4.6135     -0.00000
      7      13.2561      0.00000
      8      13.2561      0.00000
      9      15.3098      0.00000
     10      15.6396      0.00000
     11      16.4724      0.00000
     12      16.4725      0.00000
     13      17.1869      0.00000
     14      17.5273      0.00000
     15      22.5692      0.00000
     16      22.5692      0.00000
     17      22.5850      0.00000
     18      23.1326      0.00000
     19      23.2060      0.00000
     20      23.2067      0.00000
     21      23.3381      0.00000
     22      23.8798      0.00000
     23      30.7068      0.00000
     24      30.9928      0.00000
     25      32.2162      0.00000
     26      32.2539      0.00000
     27      35.8861      0.00000
     28      35.9607      0.00000
     29      36.0292      0.00000
     30      37.6161      0.00000
     31      38.7851      0.00000
     32      39.0015      0.00000
     33      39.1379      0.00000
     34      40.2402      0.00000
     35      41.5498      0.00000
     36      41.8369      0.00000
     37      41.9179      0.00000
     38      44.2735      0.00000
     39      45.6255      0.00000
     40      47.8892      0.00000
     41      48.3661      0.00000
     42      51.0094      0.00000
     43      51.5745      0.00000
     44      53.1707      0.00000
     45      53.6209      0.00000
     46      56.3412      0.00000
     47      57.1807      0.00000
     48      58.4228      0.00000
     49      59.4879      0.00000
     50      61.4607      0.00000
     51      64.7317      0.00000
     52      65.8925      0.00000
     53      68.9889      0.00000
     54      71.3467      0.00000
     55      74.1824      0.00000
     56      76.5843      0.00000

 k-point   100 :       0.5000    0.0000    0.5000
  band No.  band energies     occupation 
      1      -5.0673      2.00000
      2      -5.0673      2.00000
      3       0.5682      2.00000
      4       0.5682      2.00000
      5       4.5699     -0.00000
      6       4.5699     -0.00000
      7      13.2710      0.00000
      8      13.2710      0.00000
      9      15.4786      0.00000
     10      15.4786      0.00000
     11      16.4557      0.00000
     12      16.4557      0.00000
     13      17.3554      0.00000
     14      17.3554      0.00000
     15      22.8738      0.00000
     16      22.8766      0.00000
     17      22.8824      0.00000
     18      22.8834      0.00000
     19      22.8848      0.00000
     20      22.8878      0.00000
     21      23.5852      0.00000
     22      23.5853      0.00000
     23      30.8382      0.00000
     24      30.8641      0.00000
     25      32.2246      0.00000
     26      32.2688      0.00000
     27      35.8375      0.00000
     28      35.9149      0.00000
     29      36.4645      0.00000
     30      37.6700      0.00000
     31      38.7520      0.00000
     32      38.9881      0.00000
     33      39.1414      0.00000
     34      40.2470      0.00000
     35      40.6532      0.00000
     36      41.6355      0.00000
     37      42.5489      0.00000
     38      44.1626      0.00000
     39      45.7275      0.00000
     40      47.6095      0.00000
     41      48.6325      0.00000
     42      50.5033      0.00000
     43      51.9216      0.00000
     44      52.7806      0.00000
     45      54.0580      0.00000
     46      56.9977      0.00000
     47      57.4330      0.00000
     48      58.7299      0.00000
     49      59.9199      0.00000
     50      61.1062      0.00000
     51      64.7847      0.00000
     52      66.5452      0.00000
     53      68.4506      0.00000
     54      70.5664      0.00000
     55      74.5663      0.00000
     56      77.1063      0.00000


--------------------------------------------------------------------------------------------------------


 soft charge-density along one line, spin component           1
         0         1         2         3         4         5         6         7         8         9
 total charge-density along one line
 
 pseudopotential strength for first ion, spin component:           1
 14.460   0.000  18.041   0.000   0.000   0.000   0.000   0.000   0.000   0.000   0.000   0.000   0.000   0.000   0.000   0.000
 18.041   0.000  22.523   0.000   0.000   0.000   0.000   0.000   0.000   0.000   0.000   0.000   0.000   0.000   0.000   0.000
  0.000   0.000   0.000   0.000   3.083  -0.000   0.000  -0.000   0.000   0.000   5.275  -0.000   0.000  -0.000   0.000   0.000
  0.000   0.000   0.000   0.000   0.000   0.000   3.083  -0.000   0.000  -0.000   0.000   0.000   5.275  -0.000   0.000  -0.000
  0.000   0.000   0.000   0.000   0.000  -0.000   0.000   0.000   3.083  -0.000   0.000  -0.000   0.000   0.000   5.275  -0.000
  0.000   0.000   0.000   0.000   5.275  -0.000   0.000  -0.000   0.000   0.000   9.071  -0.000   0.000  -0.000   0.000   0.000
  0.000   0.000   0.000   0.000   0.000   0.000   5.275  -0.000   0.000  -0.000   0.000   0.000   9.071  -0.000   0.000  -0.000
  0.000   0.000   0.000   0.000   0.000  -0.000   0.000   0.000   5.275  -0.000   0.000  -0.000   0.000   0.000   9.071  -0.000
  0.000   0.000   0.000   0.000   0.000   0.000   0.001   0.000   0.000   0.000   0.000   0.000   0.001   0.000   0.000   0.000
  0.000   0.000   0.000   0.000   0.000   0.000   0.000   0.000   0.001   0.000   0.000   0.000   0.000   0.000   0.001   0.000
  0.000   0.000   0.000   0.000   0.000   0.000  -0.000   0.000   0.000   0.000   0.000   0.000  -0.000   0.000   0.000   0.000
  0.000   0.000   0.000   0.000   0.001   0.000   0.000   0.000   0.000   0.000   0.001   0.000   0.000   0.000   0.000   0.000
 -0.000   0.000  -0.000   0.000   0.000   0.000   0.000   0.000  -0.000   0.000   0.000   0.000   0.000   0.000  -0.000   0.000
 total augmentation occupancy for first ion, spin component:           1
  2.000   0.000   0.000   0.000   0.000   0.000   0.000   0.000   0.000   0.000   0.000   0.000   0.000
  0.000   0.000   0.000   0.000   0.000   0.000   0.000   0.000   0.000   0.000   0.000   0.000   0.000
  0.000   0.000   0.667   0.000   0.000   0.000   0.000   0.000   0.000   0.000   0.000   0.000   0.000
  0.000   0.000   0.000   0.667   0.000   0.000   0.000   0.000   0.000   0.000   0.000   0.000   0.000
  0.000   0.000   0.000   0.000   0.667   0.000   0.000   0.000   0.000   0.000   0.000   0.000   0.000
  0.000   0.000   0.000   0.000   0.000   0.000   0.000   0.000   0.000   0.000   0.000   0.000   0.000
  0.000   0.000   0.000   0.000   0.000   0.000   0.000   0.000   0.000   0.000   0.000   0.000   0.000
  0.000   0.000   0.000   0.000   0.000   0.000   0.000   0.000   0.000   0.000   0.000   0.000   0.000
  0.000   0.000   0.000   0.000   0.000   0.000   0.000   0.000   0.000   0.000   0.000   0.000   0.000
  0.000   0.000   0.000   0.000   0.000   0.000   0.000   0.000   0.000   0.000   0.000   0.000   0.000
  0.000   0.000   0.000   0.000   0.000   0.000   0.000   0.000   0.000   0.000   0.000   0.000   0.000
  0.000   0.000   0.000   0.000   0.000   0.000   0.000   0.000   0.000   0.000   0.000   0.000   0.000
  0.000   0.000   0.000   0.000   0.000   0.000   0.000   0.000   0.000   0.000   0.000   0.000   0.000


------------------------ aborting loop because EDIFF is reached ----------------------------------------


    CHARGE:  cpu time    0.0462: real time    0.0468
    FORLOC:  cpu time    0.0003: real time    0.0003
    FORNL :  cpu time    0.0407: real time    0.0408
    STRESS:  cpu time    0.4491: real time    0.4498
    FORCOR:  cpu time    0.0037: real time    0.0037
    FORHAR:  cpu time    0.0012: real time    0.0012
    OFIELD:  cpu time    0.0000: real time    0.0000

  FORCE on cell =-STRESS in cart. coord.  units (eV):
  Direction    XX          YY          ZZ          XY          YZ          ZX
  --------------------------------------------------------------------------------------
  Alpha Z    17.10940    17.10940    17.10940
  Ewald     -73.44225   -73.44225   -73.44225     0.00000     0.00000     0.00000
  Hartree     6.46271     6.46271     6.46271     0.00000     0.00000     0.00000
  E(xc)     -28.07357   -28.07357   -28.07357     0.00000     0.00000     0.00000
  Local     -26.20918   -26.20918   -26.20918     0.00000     0.00000     0.00000
  n-local    42.90602    39.96847    42.90584    -1.12493    -1.12591    -1.12511
  augment     2.30893     2.30893     2.30893    -0.00000    -0.00000    -0.00000
  Kinetic    72.38900    64.50666    72.38912    -2.66569    -2.66434    -2.66593
  Fock        0.00000     0.00000     0.00000     0.00000     0.00000     0.00000
  -------------------------------------------------------------------------------------
  Total       9.84442     9.84442     9.84442     0.00000     0.00000     0.00000
  in kB     352.97283   352.97283   352.97283     0.00000     0.00000     0.00000
  external pressure =      352.97 kB  Pullay stress =        0.00 kB


 VOLUME and BASIS-vectors are now :
 -----------------------------------------------------------------------------
  energy-cutoff  :      450.00
  volume of cell :       44.68
      direct lattice vectors                 reciprocal lattice vectors
     0.000000000  2.816500000  2.816500000    -0.177525297  0.177525297  0.177525297
     2.816500000  0.000000000  2.816500000     0.177525297 -0.177525297  0.177525297
     2.816500000  2.816500000  0.000000000     0.177525297  0.177525297 -0.177525297

  length of vectors
     3.983132498  3.983132498  3.983132498     0.307482835  0.307482835  0.307482835


 FORCES acting on ions
    electron-ion (+dipol)            ewald-force                    non-local-force                 convergence-correction
 -----------------------------------------------------------------------------------------------
   -.210E-06 -.210E-06 -.210E-06   0.204E-14 0.421E-14 0.352E-14   -.123E-15 -.120E-15 -.902E-16   -.211E-10 -.212E-10 -.212E-10
   0.210E-06 0.210E-06 0.210E-06   -.214E-14 -.407E-14 -.341E-14   0.114E-15 0.127E-15 0.113E-15   0.212E-10 0.212E-10 0.212E-10
 -----------------------------------------------------------------------------------------------
   -.415E-13 0.914E-14 0.789E-14   -.101E-15 0.144E-15 0.110E-15   -.867E-17 0.694E-17 0.226E-16   0.984E-14 0.746E-14 0.425E-15
 
 
 POSITION                                       TOTAL-FORCE (eV/Angst)
 -----------------------------------------------------------------------------------
      0.00000      0.00000      0.00000        -0.000000     -0.000000     -0.000000
      1.40825      1.40825      1.40825         0.000000      0.000000      0.000000
 -----------------------------------------------------------------------------------
    total drift:                               -0.000000      0.000000      0.000000


--------------------------------------------------------------------------------------------------------



  FREE ENERGIE OF THE ION-ELECTRON SYSTEM (eV)
  ---------------------------------------------------
  free  energy   TOTEN  =        -2.73804383 eV

  energy  without entropy=       -2.73863788  energy(sigma->0) =       -2.73824185
 


--------------------------------------------------------------------------------------------------------


    POTLOK:  cpu time    0.0068: real time    0.0068


--------------------------------------------------------------------------------------------------------


     LOOP+:  cpu time   20.9941: real time   21.4219
    4ORBIT:  cpu time    0.0000: real time    0.0000

 total amount of memory used by VASP MPI-rank0    46535. kBytes
=======================================================================

   base      :      30000. kBytes
   nonl-proj :      10515. kBytes
   fftplans  :        272. kBytes
   grid      :        626. kBytes
   one-center:         16. kBytes
   wavefun   :       5106. kBytes
 
  
  
 General timing and accounting informations for this job:
 ========================================================
  
                  Total CPU time used (sec):       21.969
                            User time (sec):       20.443
                          System time (sec):        1.526
                         Elapsed time (sec):       22.500
  
                   Maximum memory used (kb):       79632.
                   Average memory used (kb):           0.
  
                          Minor page faults:        55904
                          Major page faults:            0
                 Voluntary context switches:         1121
