 vasp.5.4.4.18Apr17-6-g9f103f2a35 (build Sep 10 2021 22:26:18) complex          
  
 executed on             LinuxIFC date 2022.02.18  10:25:14
 running on   54 total cores
 distrk:  each k-point on    9 cores,    6 groups
 distr:  one band on NCORES_PER_BAND=   3 cores,    3 groups


--------------------------------------------------------------------------------------------------------


 INCAR:
 POTCAR:    PAW_PBE Ge 05Jan2001                  

 ----------------------------------------------------------------------------- 
|                                                                             |
|           W    W    AA    RRRRR   N    N  II  N    N   GGGG   !!!           |
|           W    W   A  A   R    R  NN   N  II  NN   N  G    G  !!!           |
|           W    W  A    A  R    R  N N  N  II  N N  N  G       !!!           |
|           W WW W  AAAAAA  RRRRR   N  N N  II  N  N N  G  GGG   !            |
|           WW  WW  A    A  R   R   N   NN  II  N   NN  G    G                |
|           W    W  A    A  R    R  N    N  II  N    N   GGGG   !!!           |
|                                                                             |
|      For optimal performance we recommend to set                            |
|        NCORE= 4 - approx SQRT( number of cores)                             |
|      NCORE specifies how many cores store one orbital (NPAR=cpu/NCORE).     |
|      This setting can  greatly improve the performance of VASP for DFT.     |
|      The default,   NCORE=1            might be grossly inefficient         |
|      on modern multi-core architectures or massively parallel machines.     |
|      Do your own testing !!!!                                               |
|      Unfortunately you need to use the default for GW and RPA calculations. |
|      (for HF NCORE is supported but not extensively tested yet)             |
|                                                                             |
 ----------------------------------------------------------------------------- 


 ----------------------------------------------------------------------------- 
|                                                                             |
|           W    W    AA    RRRRR   N    N  II  N    N   GGGG   !!!           |
|           W    W   A  A   R    R  NN   N  II  NN   N  G    G  !!!           |
|           W    W  A    A  R    R  N N  N  II  N N  N  G       !!!           |
|           W WW W  AAAAAA  RRRRR   N  N N  II  N  N N  G  GGG   !            |
|           WW  WW  A    A  R   R   N   NN  II  N   NN  G    G                |
|           W    W  A    A  R    R  N    N  II  N    N   GGGG   !!!           |
|                                                                             |
|      You have enabled k-point parallelism (KPAR>1).                         |
|      This developmental code was originally  written by Paul Kent at ORNL,  |
|      and carefully double checked in Vienna.                                |
|      GW as well as linear response parallelism added by Martijn Marsman     |
|      and Georg Kresse.                                                      |
|      Carefully verify results versus KPAR=1.                                |
|      Report problems to Paul Kent and Vienna.                               |
|                                                                             |
 ----------------------------------------------------------------------------- 

 POTCAR:    PAW_PBE Ge 05Jan2001                  
   VRHFIN =Ge: s2p2                                                             
   LEXCH  = PE                                                                  
   EATOM  =   104.9960 eV,    7.7170 Ry                                         
                                                                                
   TITEL  = PAW_PBE Ge 05Jan2001                                                
   LULTRA =        F    use ultrasoft PP ?                                      
   IUNSCR =        1    unscreen: 0-lin 1-nonlin 2-no                           
   RPACOR =    2.170    partial core radius                                     
   POMASS =   72.610; ZVAL   =    4.000    mass and valenz                      
   RCORE  =    2.300    outmost cutoff radius                                   
   RWIGS  =    2.300; RWIGS  =    1.217    wigner-seitz radius (au A)           
   ENMAX  =  173.807; ENMIN  =  130.355 eV                                      
   ICORE  =        3    local potential                                         
   LCOR   =        T    correct aug charges                                     
   LPAW   =        T    paw PP                                                  
   EAUG   =  385.843                                                            
   DEXC   =    0.000                                                            
   RMAX   =    2.342    core radius for proj-oper                               
   RAUG   =    1.300    factor for augmentation sphere                          
   RDEP   =    2.318    radius for radial grids                                 
   RDEPT  =    2.103    core radius for aug-charge                              
                                                                                
   Atomic configuration                                                         
   10 entries                                                                   
     n  l   j            E        occ.                                          
     1  0  0.50    -10959.8463   2.0000                                         
     2  0  0.50     -1371.6056   2.0000                                         
     2  1  1.50     -1198.4791   6.0000                                         
     3  0  0.50      -168.4733   2.0000                                         
     3  1  1.50      -115.6019   6.0000                                         
     3  2  2.50       -29.3106  10.0000                                         
     4  0  0.50       -11.7309   2.0000                                         
     4  1  0.50        -3.8952   2.0000                                         
     4  2  1.50        -4.0817   0.0000                                         
     4  3  2.50        -4.0817   0.0000                                         
   Description                                                                  
     l       E           TYP  RCUT    TYP  RCUT                                 
     0    -11.7309493     23  2.300                                             
     0     -7.4578696     23  2.300                                             
     1     -3.8952261     23  2.300                                             
     1      6.1178114     23  2.300                                             
     2     -4.0817478     23  2.300                                             
     3     -1.3605826      7  2.300                                             
  local pseudopotential read in
  partial core-charges read in
  partial kinetic energy density read in
  atomic valenz-charges read in
  non local Contribution for L=           0  read in
    real space projection operators read in
  non local Contribution for L=           0  read in
    real space projection operators read in
  non local Contribution for L=           1  read in
    real space projection operators read in
  non local Contribution for L=           1  read in
    real space projection operators read in
  non local Contribution for L=           2  read in
    real space projection operators read in
    PAW grid and wavefunctions read in
 
   number of l-projection  operators is LMAX  =           5
   number of lm-projection operators is LMMAX =          13
 
  PAW_PBE Ge 05Jan2001                  :
 energy of atom  1       EATOM= -104.9960
 kinetic energy error for atom=    0.0003 (will be added to EATOM!!)
 
 
 POSCAR: Ge                                      
  positions in direct lattice
  No initial velocities read in
 exchange correlation table for  LEXCH =        8
   RHO(1)=    0.500       N(1)  =     2000
   RHO(2)=  100.500       N(2)  =     4000
 


--------------------------------------------------------------------------------------------------------


 ion  position               nearest neighbor table
   1  0.000  0.000  0.000-   2 2.44   2 2.44   2 2.44   2 2.44
   2  0.250  0.250  0.250-   1 2.44   1 2.44   1 2.44   1 2.44
 
  LATTYP: Found a face centered cubic cell.
 ALAT       =     5.6330000000
  
  Lattice vectors:
  
 A1 = (   0.0000000000,   2.8165000000,   2.8165000000)
 A2 = (   2.8165000000,   0.0000000000,   2.8165000000)
 A3 = (   2.8165000000,   2.8165000000,   0.0000000000)


Analysis of symmetry for initial positions (statically):
=====================================================================
 Subroutine PRICEL returns:
 Original cell was already a primitive cell.
 

 Routine SETGRP: Setting up the symmetry group for a 
 face centered cubic supercell.


 Subroutine GETGRP returns: Found 48 space group operations
 (whereof 24 operations were pure point group operations)
 out of a pool of 48 trial point group operations.


The static configuration has the point symmetry T_d .
 The point group associated with its full space group is O_h .


Analysis of symmetry for dynamics (positions and initial velocities):
=====================================================================
 Subroutine PRICEL returns:
 Original cell was already a primitive cell.
 

 Routine SETGRP: Setting up the symmetry group for a 
 face centered cubic supercell.


 Subroutine GETGRP returns: Found 48 space group operations
 (whereof 24 operations were pure point group operations)
 out of a pool of 48 trial point group operations.


The dynamic configuration has the point symmetry T_d .
 The point group associated with its full space group is O_h .


Analysis of structural, dynamic, and magnetic symmetry:
=====================================================================
 Subroutine PRICEL returns:
 Original cell was already a primitive cell.
 

 Routine SETGRP: Setting up the symmetry group for a 
 face centered cubic supercell.


 Subroutine GETGRP returns: Found 48 space group operations
 (whereof 24 operations were pure point group operations)
 out of a pool of 48 trial point group operations.


The magnetic configuration has the point symmetry T_d .
 The point group associated with its full space group is O_h .


 Subroutine INISYM returns: Found 48 space group operations
 (whereof 24 operations are pure point group operations),
 and found     1 'primitive' translations

 
 
 KPOINTS: band                                    
  interpolating k-points between supplied coordinates
  k-points in reciprocal lattice
Space group operators:
 irot       det(A)        alpha          n_x          n_y          n_z        tau_x        tau_y        tau_z
    1     1.000000     0.000000     1.000000     0.000000     0.000000     0.000000     0.000000     0.000000
    2     1.000000   120.000000    -0.577350    -0.577350    -0.577350     0.000000     0.000000     0.000000
    3     1.000000   120.000000     0.577350     0.577350     0.577350     0.000000     0.000000     0.000000
    4    -1.000000    90.000000     0.000000     0.000000    -1.000000     0.000000     0.000000     0.000000
    5    -1.000000   180.000000     0.000000     0.707107     0.707107     0.000000     0.000000     0.000000
    6    -1.000000    90.000000     0.000000     1.000000     0.000000     0.000000     0.000000     0.000000
    7     1.000000   180.000000     0.000000     0.000000     1.000000     0.000000     0.000000     0.000000
    8     1.000000   120.000000    -0.577350     0.577350     0.577350     0.000000     0.000000     0.000000
    9     1.000000   120.000000    -0.577350     0.577350    -0.577350     0.000000     0.000000     0.000000
   10    -1.000000    90.000000     0.000000     0.000000     1.000000     0.000000     0.000000     0.000000
   11    -1.000000    90.000000    -1.000000     0.000000     0.000000     0.000000     0.000000     0.000000
   12    -1.000000   180.000000     0.707107     0.000000     0.707107     0.000000     0.000000     0.000000
   13     1.000000   120.000000     0.577350    -0.577350     0.577350     0.000000     0.000000     0.000000
   14     1.000000   120.000000    -0.577350    -0.577350     0.577350     0.000000     0.000000     0.000000
   15     1.000000   180.000000     1.000000     0.000000     0.000000     0.000000     0.000000     0.000000
   16    -1.000000    90.000000     0.000000    -1.000000     0.000000     0.000000     0.000000     0.000000
   17    -1.000000   180.000000     0.707107     0.707107     0.000000     0.000000     0.000000     0.000000
   18    -1.000000    90.000000     1.000000     0.000000     0.000000     0.000000     0.000000     0.000000
   19     1.000000   120.000000     0.577350    -0.577350    -0.577350     0.000000     0.000000     0.000000
   20     1.000000   180.000000     0.000000     1.000000     0.000000     0.000000     0.000000     0.000000
   21     1.000000   120.000000     0.577350     0.577350    -0.577350     0.000000     0.000000     0.000000
   22    -1.000000   180.000000     0.000000    -0.707107     0.707107     0.000000     0.000000     0.000000
   23    -1.000000   180.000000     0.707107    -0.707107     0.000000     0.000000     0.000000     0.000000
   24    -1.000000   180.000000     0.707107     0.000000    -0.707107     0.000000     0.000000     0.000000
   25    -1.000000     0.000000     1.000000     0.000000     0.000000     0.250000     0.250000     0.250000
   26    -1.000000   120.000000    -0.577350    -0.577350    -0.577350     0.250000     0.250000     0.250000
   27    -1.000000   120.000000     0.577350     0.577350     0.577350     0.250000     0.250000     0.250000
   28     1.000000    90.000000     0.000000     0.000000    -1.000000     0.250000     0.250000     0.250000
   29     1.000000   180.000000     0.000000     0.707107     0.707107     0.250000     0.250000     0.250000
   30     1.000000    90.000000     0.000000     1.000000     0.000000     0.250000     0.250000     0.250000
   31    -1.000000   180.000000     0.000000     0.000000     1.000000     0.250000     0.250000     0.250000
   32    -1.000000   120.000000    -0.577350     0.577350     0.577350     0.250000     0.250000     0.250000
   33    -1.000000   120.000000    -0.577350     0.577350    -0.577350     0.250000     0.250000     0.250000
   34     1.000000    90.000000     0.000000     0.000000     1.000000     0.250000     0.250000     0.250000
   35     1.000000    90.000000    -1.000000     0.000000     0.000000     0.250000     0.250000     0.250000
   36     1.000000   180.000000     0.707107     0.000000     0.707107     0.250000     0.250000     0.250000
   37    -1.000000   120.000000     0.577350    -0.577350     0.577350     0.250000     0.250000     0.250000
   38    -1.000000   120.000000    -0.577350    -0.577350     0.577350     0.250000     0.250000     0.250000
   39    -1.000000   180.000000     1.000000     0.000000     0.000000     0.250000     0.250000     0.250000
   40     1.000000    90.000000     0.000000    -1.000000     0.000000     0.250000     0.250000     0.250000
   41     1.000000   180.000000     0.707107     0.707107     0.000000     0.250000     0.250000     0.250000
   42     1.000000    90.000000     1.000000     0.000000     0.000000     0.250000     0.250000     0.250000
   43    -1.000000   120.000000     0.577350    -0.577350    -0.577350     0.250000     0.250000     0.250000
   44    -1.000000   180.000000     0.000000     1.000000     0.000000     0.250000     0.250000     0.250000
   45    -1.000000   120.000000     0.577350     0.577350    -0.577350     0.250000     0.250000     0.250000
   46     1.000000   180.000000     0.000000    -0.707107     0.707107     0.250000     0.250000     0.250000
   47     1.000000   180.000000     0.707107    -0.707107     0.000000     0.250000     0.250000     0.250000
   48     1.000000   180.000000     0.707107     0.000000    -0.707107     0.250000     0.250000     0.250000


--------------------------------------------------------------------------------------------------------




 Dimension of arrays:
   k-points           NKPTS =    100   k-points in BZ     NKDIM =    100   number of bands    NBANDS=     54
   number of dos      NEDOS =    301   number of ions     NIONS =      2
   non local maximal  LDIM  =      5   non local SUM 2l+1 LMDIM =     13
   total plane-waves  NPLWV =  13824
   max r-space proj   IRMAX =      1   max aug-charges    IRDMAX=  17012
   dimension x,y,z NGX =    24 NGY =   24 NGZ =   24
   dimension x,y,z NGXF=    48 NGYF=   48 NGZF=   48
   support grid    NGXF=    48 NGYF=   48 NGZF=   48
   ions per type =               2
   NGX,Y,Z   is equivalent  to a cutoff of  10.02, 10.02, 10.02 a.u.
   NGXF,Y,Z  is equivalent  to a cutoff of  20.03, 20.03, 20.03 a.u.

 SYSTEM =  unknown system                          
 POSCAR =  Ge                                      

 Startparameter for this run:
   NWRITE =      2    write-flag & timer
   PREC   = n         normal or accurate (medium, high low for compatibility)
   ISTART =      1    job   : 0-new  1-cont  2-samecut
   ICHARG =     11    charge: 1-file 2-atom 10-const
   ISPIN  =      2    spin polarized calculation?
   LNONCOLLINEAR =      F non collinear calculations
   LSORBIT =      F    spin-orbit coupling
   INIWAV =      1    electr: 0-lowe 1-rand  2-diag
   LASPH  =      F    aspherical Exc in radial PAW
   METAGGA=      F    non-selfconsistent MetaGGA calc.

 Electronic Relaxation 1
   ENCUT  =  450.0 eV  33.07 Ry    5.75 a.u.   6.89  6.89  6.89*2*pi/ulx,y,z
   ENINI  =  450.0     initial cutoff
   ENAUG  =  385.8 eV  augmentation charge cutoff
   NELM   =     60;   NELMIN=  2; NELMDL=  0     # of ELM steps 
   EDIFF  = 0.1E-03   stopping-criterion for ELM
   LREAL  =      F    real-space projection
   NLSPLINE    = F    spline interpolate recip. space projectors
   LCOMPAT=      F    compatible to vasp.4.4
   GGA_COMPAT  = T    GGA compatible to vasp.4.4-vasp.4.6
   LMAXPAW     = -100 max onsite density
   LMAXMIX     =    2 max onsite mixed and CHGCAR
   VOSKOWN=      0    Vosko Wilk Nusair interpolation
   ROPT   =    0.00000
 Ionic relaxation
   EDIFFG = 0.1E-02   stopping-criterion for IOM
   NSW    =      0    number of steps for IOM
   NBLOCK =      1;   KBLOCK =      1    inner block; outer block 
   IBRION =     -1    ionic relax: 0-MD 1-quasi-New 2-CG
   NFREE  =      0    steps in history (QN), initial steepest desc. (CG)
   ISIF   =      2    stress and relaxation
   IWAVPR =     10    prediction:  0-non 1-charg 2-wave 3-comb
   ISYM   =      2    0-nonsym 1-usesym 2-fastsym
   LCORR  =      T    Harris-Foulkes like correction to forces

   POTIM  = 0.5000    time-step for ionic-motion
   TEIN   =    0.0    initial temperature
   TEBEG  =    0.0;   TEEND  =   0.0 temperature during run
   SMASS  =  -3.00    Nose mass-parameter (am)
   estimated Nose-frequenzy (Omega)   =  0.10E-29 period in steps =****** mass=  -0.363E-27a.u.
   SCALEE = 1.0000    scale energy and forces
   NPACO  =    256;   APACO  = 16.0  distance and # of slots for P.C.
   PSTRESS=    0.0 pullay stress

  Mass of Ions in am
   POMASS =  72.61
  Ionic Valenz
   ZVAL   =   4.00
  Atomic Wigner-Seitz radii
   RWIGS  =  -1.00
  virtual crystal weights 
   VCA    =   1.00
   NELECT =       8.0000    total number of electrons
   NUPDOWN=      -1.0000    fix difference up-down

 DOS related values:
   EMIN   =  10.00;   EMAX   =-10.00  energy-range for DOS
   EFERMI =   0.00
   ISMEAR =     0;   SIGMA  =   0.05  broadening in eV -4-tet -1-fermi 0-gaus

 Electronic relaxation 2 (details)
   IALGO  =     53    algorithm
   LDIAG  =      T    sub-space diagonalisation (order eigenvalues)
   LSUBROT=      F    optimize rotation matrix (better conditioning)
   TURBO    =      0    0=normal 1=particle mesh
   IRESTART =      0    0=no restart 2=restart with 2 vectors
   NREBOOT  =      0    no. of reboots
   NMIN     =      0    reboot dimension
   EREF     =   0.00    reference energy to select bands
   IMIX   =      4    mixing-type and parameters
     AMIX     =   0.40;   BMIX     =  1.00
     AMIX_MAG =   1.60;   BMIX_MAG =  1.00
     AMIN     =   0.10
     WC   =   100.;   INIMIX=   1;  MIXPRE=   1;  MAXMIX= -45

 Intra band minimization:
   WEIMIN = 0.0000     energy-eigenvalue tresh-hold
   EBREAK =  0.46E-06  absolut break condition
   DEPER  =   0.30     relativ break condition  

   TIME   =   0.40     timestep for ELM

  volume/ion in A,a.u.               =      22.34       150.77
  Fermi-wavevector in a.u.,A,eV,Ry     =   0.922681  1.743615 11.583196  0.851341
  Thomas-Fermi vector in A             =   2.048235
 
 Write flags
   LWAVE        =      F    write WAVECAR
   LDOWNSAMPLE  =      F    k-point downsampling of WAVECAR
   LCHARG       =      F    write CHGCAR
   LVTOT        =      F    write LOCPOT, total local potential
   LVHAR        =      F    write LOCPOT, Hartree potential only
   LELF         =      F    write electronic localiz. function (ELF)
   LORBIT       =      0    0 simple, 1 ext, 2 COOP (PROOUT), +10 PAW based schemes


 Dipole corrections
   LMONO  =      F    monopole corrections only (constant potential shift)
   LDIPOL =      F    correct potential (dipole corrections)
   IDIPOL =      0    1-x, 2-y, 3-z, 4-all directions 
   EPSILON=  1.0000000 bulk dielectric constant

 LDA+U is selected, type is set to LDAUTYPE =  2
   angular momentum for each species LDAUL =     1
   U (eV)           for each species LDAUU =  -2.3
   J (eV)           for each species LDAUJ =   0.0
 Exchange correlation treatment:
   GGA     =    PE    GGA type
   LEXCH   =     8    internal setting for exchange type
   VOSKOWN=      0    Vosko Wilk Nusair interpolation
   LHFCALC =     F    Hartree Fock is set to
   LHFONE  =     F    Hartree Fock one center treatment
   AEXX    =    0.0000 exact exchange contribution

 Linear response parameters
   LEPSILON=     F    determine dielectric tensor
   LRPA    =     F    only Hartree local field effects (RPA)
   LNABLA  =     F    use nabla operator in PAW spheres
   LVEL    =     F    velocity operator in full k-point grid
   LINTERFAST=   F  fast interpolation
   KINTER  =     0    interpolate to denser k-point grid
   CSHIFT  =0.1000    complex shift for real part using Kramers Kronig
   OMEGAMAX=  -1.0    maximum frequency
   DEG_THRESHOLD= 0.2000000E-02 threshold for treating states as degnerate
   RTIME   =   -0.100 relaxation time in fs
  (WPLASMAI=    0.000 imaginary part of plasma frequency in eV, 0.658/RTIME)
   DFIELD  = 0.0000000 0.0000000 0.0000000 field for delta impulse in time
 
 Orbital magnetization related:
   ORBITALMAG=     F  switch on orbital magnetization
   LCHIMAG   =     F  perturbation theory with respect to B field
   DQ        =  0.001000  dq finite difference perturbation B field
   LLRAUG    =     F  two centre corrections for induced B field



--------------------------------------------------------------------------------------------------------


 Static calculation
 charge density and potential remain constant during run
 spin polarized calculation
 Conjugate gradient for all bands (Freysoldt, et al. PRB 79, 241103 (2009))
 perform sub-space diagonalisation
    before iterative eigenvector-optimisation
 no mixing
 using additional bands           50
 reciprocal scheme for non local part
 use partial core corrections
 calculate Harris-corrections to forces 
   (improved forces if not selfconsistent)
 use gradient corrections 
 WARNING: stress and forces are not correct
  (second derivative of E(xc) not defined)
 use of overlap-Matrix (Vanderbilt PP)
 Gauss-broadening in eV      SIGMA  =   0.05


--------------------------------------------------------------------------------------------------------


  energy-cutoff  :      450.00
  volume of cell :       44.68
      direct lattice vectors                 reciprocal lattice vectors
     0.000000000  2.816500000  2.816500000    -0.177525297  0.177525297  0.177525297
     2.816500000  0.000000000  2.816500000     0.177525297 -0.177525297  0.177525297
     2.816500000  2.816500000  0.000000000     0.177525297  0.177525297 -0.177525297

  length of vectors
     3.983132498  3.983132498  3.983132498     0.307482835  0.307482835  0.307482835


 
 old parameters found on file WAVECAR:
  energy-cutoff  :      450.00
  volume of cell :       44.68
      direct lattice vectors                 reciprocal lattice vectors
     0.000000000  2.816500000  2.816500000    -0.177525297  0.177525297  0.177525297
     2.816500000  0.000000000  2.816500000     0.177525297 -0.177525297  0.177525297
     2.816500000  2.816500000  0.000000000     0.177525297  0.177525297 -0.177525297

  length of vectors

 
 k-points in units of 2pi/SCALE and weight: band                                    
   0.08876265  0.08876265  0.08876265       0.010
   0.08695117  0.08695117  0.08695117       0.010
   0.08513968  0.08513968  0.08513968       0.010
   0.08332820  0.08332820  0.08332820       0.010
   0.08151672  0.08151672  0.08151672       0.010
   0.07970524  0.07970524  0.07970524       0.010
   0.07789375  0.07789375  0.07789375       0.010
   0.07608227  0.07608227  0.07608227       0.010
   0.07427079  0.07427079  0.07427079       0.010
   0.07245931  0.07245931  0.07245931       0.010
   0.07064782  0.07064782  0.07064782       0.010
   0.06883634  0.06883634  0.06883634       0.010
   0.06702486  0.06702486  0.06702486       0.010
   0.06521337  0.06521337  0.06521337       0.010
   0.06340189  0.06340189  0.06340189       0.010
   0.06159041  0.06159041  0.06159041       0.010
   0.05977893  0.05977893  0.05977893       0.010
   0.05796744  0.05796744  0.05796744       0.010
   0.05615596  0.05615596  0.05615596       0.010
   0.05434448  0.05434448  0.05434448       0.010
   0.05253300  0.05253300  0.05253300       0.010
   0.05072151  0.05072151  0.05072151       0.010
   0.04891003  0.04891003  0.04891003       0.010
   0.04709855  0.04709855  0.04709855       0.010
   0.04528707  0.04528707  0.04528707       0.010
   0.04347558  0.04347558  0.04347558       0.010
   0.04166410  0.04166410  0.04166410       0.010
   0.03985262  0.03985262  0.03985262       0.010
   0.03804114  0.03804114  0.03804114       0.010
   0.03622965  0.03622965  0.03622965       0.010
   0.03441817  0.03441817  0.03441817       0.010
   0.03260669  0.03260669  0.03260669       0.010
   0.03079520  0.03079520  0.03079520       0.010
   0.02898372  0.02898372  0.02898372       0.010
   0.02717224  0.02717224  0.02717224       0.010
   0.02536076  0.02536076  0.02536076       0.010
   0.02354927  0.02354927  0.02354927       0.010
   0.02173779  0.02173779  0.02173779       0.010
   0.01992631  0.01992631  0.01992631       0.010
   0.01811483  0.01811483  0.01811483       0.010
   0.01630334  0.01630334  0.01630334       0.010
   0.01449186  0.01449186  0.01449186       0.010
   0.01268038  0.01268038  0.01268038       0.010
   0.01086890  0.01086890  0.01086890       0.010
   0.00905741  0.00905741  0.00905741       0.010
   0.00724593  0.00724593  0.00724593       0.010
   0.00543445  0.00543445  0.00543445       0.010
   0.00362297  0.00362297  0.00362297       0.010
   0.00181148  0.00181148  0.00181148       0.010
   0.00000000  0.00000000  0.00000000       0.010
   0.00000000  0.00000000  0.00000000       0.010
   0.00000000  0.00362297  0.00000000       0.010
   0.00000000  0.00724593  0.00000000       0.010
   0.00000000  0.01086890  0.00000000       0.010
   0.00000000  0.01449186  0.00000000       0.010
   0.00000000  0.01811483  0.00000000       0.010
   0.00000000  0.02173779  0.00000000       0.010
   0.00000000  0.02536076  0.00000000       0.010
   0.00000000  0.02898372  0.00000000       0.010
   0.00000000  0.03260669  0.00000000       0.010
   0.00000000  0.03622965  0.00000000       0.010
   0.00000000  0.03985262  0.00000000       0.010
   0.00000000  0.04347558  0.00000000       0.010
   0.00000000  0.04709855  0.00000000       0.010
   0.00000000  0.05072151  0.00000000       0.010
   0.00000000  0.05434448  0.00000000       0.010
   0.00000000  0.05796744  0.00000000       0.010
   0.00000000  0.06159041  0.00000000       0.010
   0.00000000  0.06521337  0.00000000       0.010
   0.00000000  0.06883634  0.00000000       0.010
   0.00000000  0.07245931  0.00000000       0.010
   0.00000000  0.07608227  0.00000000       0.010
   0.00000000  0.07970524  0.00000000       0.010
   0.00000000  0.08332820  0.00000000       0.010
   0.00000000  0.08695117  0.00000000       0.010
   0.00000000  0.09057413  0.00000000       0.010
   0.00000000  0.09419710  0.00000000       0.010
   0.00000000  0.09782006  0.00000000       0.010
   0.00000000  0.10144303  0.00000000       0.010
   0.00000000  0.10506599  0.00000000       0.010
   0.00000000  0.10868896  0.00000000       0.010
   0.00000000  0.11231192  0.00000000       0.010
   0.00000000  0.11593489  0.00000000       0.010
   0.00000000  0.11955785  0.00000000       0.010
   0.00000000  0.12318082  0.00000000       0.010
   0.00000000  0.12680378  0.00000000       0.010
   0.00000000  0.13042675  0.00000000       0.010
   0.00000000  0.13404971  0.00000000       0.010
   0.00000000  0.13767268  0.00000000       0.010
   0.00000000  0.14129564  0.00000000       0.010
   0.00000000  0.14491861  0.00000000       0.010
   0.00000000  0.14854158  0.00000000       0.010
   0.00000000  0.15216454  0.00000000       0.010
   0.00000000  0.15578751  0.00000000       0.010
   0.00000000  0.15941047  0.00000000       0.010
   0.00000000  0.16303344  0.00000000       0.010
   0.00000000  0.16665640  0.00000000       0.010
   0.00000000  0.17027937  0.00000000       0.010
   0.00000000  0.17390233  0.00000000       0.010
   0.00000000  0.17752530  0.00000000       0.010
 
 k-points in reciprocal lattice and weights: band                                    
   0.50000000  0.50000000  0.50000000       0.010
   0.48979592  0.48979592  0.48979592       0.010
   0.47959184  0.47959184  0.47959184       0.010
   0.46938776  0.46938776  0.46938776       0.010
   0.45918367  0.45918367  0.45918367       0.010
   0.44897959  0.44897959  0.44897959       0.010
   0.43877551  0.43877551  0.43877551       0.010
   0.42857143  0.42857143  0.42857143       0.010
   0.41836735  0.41836735  0.41836735       0.010
   0.40816327  0.40816327  0.40816327       0.010
   0.39795918  0.39795918  0.39795918       0.010
   0.38775510  0.38775510  0.38775510       0.010
   0.37755102  0.37755102  0.37755102       0.010
   0.36734694  0.36734694  0.36734694       0.010
   0.35714286  0.35714286  0.35714286       0.010
   0.34693878  0.34693878  0.34693878       0.010
   0.33673469  0.33673469  0.33673469       0.010
   0.32653061  0.32653061  0.32653061       0.010
   0.31632653  0.31632653  0.31632653       0.010
   0.30612245  0.30612245  0.30612245       0.010
   0.29591837  0.29591837  0.29591837       0.010
   0.28571429  0.28571429  0.28571429       0.010
   0.27551020  0.27551020  0.27551020       0.010
   0.26530612  0.26530612  0.26530612       0.010
   0.25510204  0.25510204  0.25510204       0.010
   0.24489796  0.24489796  0.24489796       0.010
   0.23469388  0.23469388  0.23469388       0.010
   0.22448980  0.22448980  0.22448980       0.010
   0.21428571  0.21428571  0.21428571       0.010
   0.20408163  0.20408163  0.20408163       0.010
   0.19387755  0.19387755  0.19387755       0.010
   0.18367347  0.18367347  0.18367347       0.010
   0.17346939  0.17346939  0.17346939       0.010
   0.16326531  0.16326531  0.16326531       0.010
   0.15306122  0.15306122  0.15306122       0.010
   0.14285714  0.14285714  0.14285714       0.010
   0.13265306  0.13265306  0.13265306       0.010
   0.12244898  0.12244898  0.12244898       0.010
   0.11224490  0.11224490  0.11224490       0.010
   0.10204082  0.10204082  0.10204082       0.010
   0.09183673  0.09183673  0.09183673       0.010
   0.08163265  0.08163265  0.08163265       0.010
   0.07142857  0.07142857  0.07142857       0.010
   0.06122449  0.06122449  0.06122449       0.010
   0.05102041  0.05102041  0.05102041       0.010
   0.04081633  0.04081633  0.04081633       0.010
   0.03061224  0.03061224  0.03061224       0.010
   0.02040816  0.02040816  0.02040816       0.010
   0.01020408  0.01020408  0.01020408       0.010
   0.00000000  0.00000000  0.00000000       0.010
   0.00000000  0.00000000  0.00000000       0.010
   0.01020408  0.00000000  0.01020408       0.010
   0.02040816  0.00000000  0.02040816       0.010
   0.03061224  0.00000000  0.03061224       0.010
   0.04081633  0.00000000  0.04081633       0.010
   0.05102041  0.00000000  0.05102041       0.010
   0.06122449  0.00000000  0.06122449       0.010
   0.07142857  0.00000000  0.07142857       0.010
   0.08163265  0.00000000  0.08163265       0.010
   0.09183673  0.00000000  0.09183673       0.010
   0.10204082  0.00000000  0.10204082       0.010
   0.11224490  0.00000000  0.11224490       0.010
   0.12244898  0.00000000  0.12244898       0.010
   0.13265306  0.00000000  0.13265306       0.010
   0.14285714  0.00000000  0.14285714       0.010
   0.15306122  0.00000000  0.15306122       0.010
   0.16326531  0.00000000  0.16326531       0.010
   0.17346939  0.00000000  0.17346939       0.010
   0.18367347  0.00000000  0.18367347       0.010
   0.19387755  0.00000000  0.19387755       0.010
   0.20408163  0.00000000  0.20408163       0.010
   0.21428571  0.00000000  0.21428571       0.010
   0.22448980  0.00000000  0.22448980       0.010
   0.23469388  0.00000000  0.23469388       0.010
   0.24489796  0.00000000  0.24489796       0.010
   0.25510204  0.00000000  0.25510204       0.010
   0.26530612  0.00000000  0.26530612       0.010
   0.27551020  0.00000000  0.27551020       0.010
   0.28571429  0.00000000  0.28571429       0.010
   0.29591837  0.00000000  0.29591837       0.010
   0.30612245  0.00000000  0.30612245       0.010
   0.31632653  0.00000000  0.31632653       0.010
   0.32653061  0.00000000  0.32653061       0.010
   0.33673469  0.00000000  0.33673469       0.010
   0.34693878  0.00000000  0.34693878       0.010
   0.35714286  0.00000000  0.35714286       0.010
   0.36734694  0.00000000  0.36734694       0.010
   0.37755102  0.00000000  0.37755102       0.010
   0.38775510  0.00000000  0.38775510       0.010
   0.39795918  0.00000000  0.39795918       0.010
   0.40816327  0.00000000  0.40816327       0.010
   0.41836735  0.00000000  0.41836735       0.010
   0.42857143  0.00000000  0.42857143       0.010
   0.43877551  0.00000000  0.43877551       0.010
   0.44897959  0.00000000  0.44897959       0.010
   0.45918367  0.00000000  0.45918367       0.010
   0.46938776  0.00000000  0.46938776       0.010
   0.47959184  0.00000000  0.47959184       0.010
   0.48979592  0.00000000  0.48979592       0.010
   0.50000000  0.00000000  0.50000000       0.010
 
 position of ions in fractional coordinates (direct lattice) 
   0.00000000  0.00000000  0.00000000
   0.25000000  0.25000000  0.25000000
 
 position of ions in cartesian coordinates  (Angst):
   0.00000000  0.00000000  0.00000000
   1.40825000  1.40825000  1.40825000
 


--------------------------------------------------------------------------------------------------------


 k-point  1 :   0.5000 0.5000 0.5000  plane waves:     978
 k-point  2 :   0.4898 0.4898 0.4898  plane waves:     969
 k-point  3 :   0.4796 0.4796 0.4796  plane waves:     969
 k-point  4 :   0.4694 0.4694 0.4694  plane waves:     969
 k-point  5 :   0.4592 0.4592 0.4592  plane waves:     969
 k-point  6 :   0.4490 0.4490 0.4490  plane waves:     969
 k-point  7 :   0.4388 0.4388 0.4388  plane waves:     969
 k-point  8 :   0.4286 0.4286 0.4286  plane waves:     969
 k-point  9 :   0.4184 0.4184 0.4184  plane waves:     963
 k-point 10 :   0.4082 0.4082 0.4082  plane waves:     963
 k-point 11 :   0.3980 0.3980 0.3980  plane waves:     966
 k-point 12 :   0.3878 0.3878 0.3878  plane waves:     954
 k-point 13 :   0.3776 0.3776 0.3776  plane waves:     960
 k-point 14 :   0.3673 0.3673 0.3673  plane waves:     965
 k-point 15 :   0.3571 0.3571 0.3571  plane waves:     962
 k-point 16 :   0.3469 0.3469 0.3469  plane waves:     968
 k-point 17 :   0.3367 0.3367 0.3367  plane waves:     968
 k-point 18 :   0.3265 0.3265 0.3265  plane waves:     968
 k-point 19 :   0.3163 0.3163 0.3163  plane waves:     968
 k-point 20 :   0.3061 0.3061 0.3061  plane waves:     962
 k-point 21 :   0.2959 0.2959 0.2959  plane waves:     962
 k-point 22 :   0.2857 0.2857 0.2857  plane waves:     956
 k-point 23 :   0.2755 0.2755 0.2755  plane waves:     956
 k-point 24 :   0.2653 0.2653 0.2653  plane waves:     962
 k-point 25 :   0.2551 0.2551 0.2551  plane waves:     959
 k-point 26 :   0.2449 0.2449 0.2449  plane waves:     959
 k-point 27 :   0.2347 0.2347 0.2347  plane waves:     953
 k-point 28 :   0.2245 0.2245 0.2245  plane waves:     953
 k-point 29 :   0.2143 0.2143 0.2143  plane waves:     953
 k-point 30 :   0.2041 0.2041 0.2041  plane waves:     956
 k-point 31 :   0.1939 0.1939 0.1939  plane waves:     956
 k-point 32 :   0.1837 0.1837 0.1837  plane waves:     950
 k-point 33 :   0.1735 0.1735 0.1735  plane waves:     956
 k-point 34 :   0.1633 0.1633 0.1633  plane waves:     956
 k-point 35 :   0.1531 0.1531 0.1531  plane waves:     953
 k-point 36 :   0.1429 0.1429 0.1429  plane waves:     959
 k-point 37 :   0.1327 0.1327 0.1327  plane waves:     953
 k-point 38 :   0.1224 0.1224 0.1224  plane waves:     953
 k-point 39 :   0.1122 0.1122 0.1122  plane waves:     950
 k-point 40 :   0.1020 0.1020 0.1020  plane waves:     950
 k-point 41 :   0.0918 0.0918 0.0918  plane waves:     950
 k-point 42 :   0.0816 0.0816 0.0816  plane waves:     950
 k-point 43 :   0.0714 0.0714 0.0714  plane waves:     950
 k-point 44 :   0.0612 0.0612 0.0612  plane waves:     944
 k-point 45 :   0.0510 0.0510 0.0510  plane waves:     944
 k-point 46 :   0.0408 0.0408 0.0408  plane waves:     944
 k-point 47 :   0.0306 0.0306 0.0306  plane waves:     941
 k-point 48 :   0.0204 0.0204 0.0204  plane waves:     941
 k-point 49 :   0.0102 0.0102 0.0102  plane waves:     941
 k-point 50 :   0.0000 0.0000 0.0000  plane waves:     941
 k-point 51 :   0.0000 0.0000 0.0000  plane waves:     941
 k-point 52 :   0.0102 0.0000 0.0102  plane waves:     941
 k-point 53 :   0.0204 0.0000 0.0204  plane waves:     941
 k-point 54 :   0.0306 0.0000 0.0306  plane waves:     941
 k-point 55 :   0.0408 0.0000 0.0408  plane waves:     945
 k-point 56 :   0.0510 0.0000 0.0510  plane waves:     945
 k-point 57 :   0.0612 0.0000 0.0612  plane waves:     945
 k-point 58 :   0.0714 0.0000 0.0714  plane waves:     953
 k-point 59 :   0.0816 0.0000 0.0816  plane waves:     953
 k-point 60 :   0.0918 0.0000 0.0918  plane waves:     953
 k-point 61 :   0.1020 0.0000 0.1020  plane waves:     953
 k-point 62 :   0.1122 0.0000 0.1122  plane waves:     945
 k-point 63 :   0.1224 0.0000 0.1224  plane waves:     949
 k-point 64 :   0.1327 0.0000 0.1327  plane waves:     950
 k-point 65 :   0.1429 0.0000 0.1429  plane waves:     950
 k-point 66 :   0.1531 0.0000 0.1531  plane waves:     962
 k-point 67 :   0.1633 0.0000 0.1633  plane waves:     966
 k-point 68 :   0.1735 0.0000 0.1735  plane waves:     966
 k-point 69 :   0.1837 0.0000 0.1837  plane waves:     966
 k-point 70 :   0.1939 0.0000 0.1939  plane waves:     966
 k-point 71 :   0.2041 0.0000 0.2041  plane waves:     966
 k-point 72 :   0.2143 0.0000 0.2143  plane waves:     974
 k-point 73 :   0.2245 0.0000 0.2245  plane waves:     978
 k-point 74 :   0.2347 0.0000 0.2347  plane waves:     982
 k-point 75 :   0.2449 0.0000 0.2449  plane waves:     982
 k-point 76 :   0.2551 0.0000 0.2551  plane waves:     982
 k-point 77 :   0.2653 0.0000 0.2653  plane waves:     982
 k-point 78 :   0.2755 0.0000 0.2755  plane waves:     982
 k-point 79 :   0.2857 0.0000 0.2857  plane waves:     974
 k-point 80 :   0.2959 0.0000 0.2959  plane waves:     982
 k-point 81 :   0.3061 0.0000 0.3061  plane waves:     974
 k-point 82 :   0.3163 0.0000 0.3163  plane waves:     974
 k-point 83 :   0.3265 0.0000 0.3265  plane waves:     970
 k-point 84 :   0.3367 0.0000 0.3367  plane waves:     962
 k-point 85 :   0.3469 0.0000 0.3469  plane waves:     966
 k-point 86 :   0.3571 0.0000 0.3571  plane waves:     974
 k-point 87 :   0.3673 0.0000 0.3673  plane waves:     974
 k-point 88 :   0.3776 0.0000 0.3776  plane waves:     974
 k-point 89 :   0.3878 0.0000 0.3878  plane waves:     974
 k-point 90 :   0.3980 0.0000 0.3980  plane waves:     978
 k-point 91 :   0.4082 0.0000 0.4082  plane waves:     978
 k-point 92 :   0.4184 0.0000 0.4184  plane waves:     978
 k-point 93 :   0.4286 0.0000 0.4286  plane waves:     978
 k-point 94 :   0.4388 0.0000 0.4388  plane waves:     978
 k-point 95 :   0.4490 0.0000 0.4490  plane waves:     974
 k-point 96 :   0.4592 0.0000 0.4592  plane waves:     974
 k-point 97 :   0.4694 0.0000 0.4694  plane waves:     982
 k-point 98 :   0.4796 0.0000 0.4796  plane waves:     982
 k-point 99 :   0.4898 0.0000 0.4898  plane waves:     982
 k-point ** :   0.5000 0.0000 0.5000  plane waves:     982

 maximum and minimum number of plane-waves per node :       335      308

 maximum number of plane-waves:       982
 maximum index in each direction: 
   IXMAX=    6   IYMAX=    6   IZMAX=    6
   IXMIN=   -7   IYMIN=   -7   IZMIN=   -7


 parallel 3D FFT for wavefunctions:
    minimum data exchange during FFTs selected (reduces bandwidth)
 parallel 3D FFT for charge:
    minimum data exchange during FFTs selected (reduces bandwidth)


 total amount of memory used by VASP MPI-rank0    95637. kBytes
=======================================================================

   base      :      30000. kBytes
   nonl-proj :       3411. kBytes
   fftplans  :       1049. kBytes
   grid      :       2064. kBytes
   one-center:         16. kBytes
   wavefun   :      59097. kBytes
 
     INWAV:  cpu time    1.0506: real time    1.0518
 initial charge density was supplied:
 number of electron       7.9999998 magnetization       0.0000003
 keeping initial charge density in first step


--------------------------------------------------------------------------------------------------------


 Maximum index for augmentation-charges         2284 (set IRDMAX)


--------------------------------------------------------------------------------------------------------


 First call to EWALD:  gamma=   0.499
 Maximum number of real-space cells 3x 3x 3
 Maximum number of reciprocal cells 3x 3x 3

    FEWALD:  cpu time    0.0014: real time    0.0014


--------------------------------------- Iteration      1(   1)  ---------------------------------------


    POTLOK:  cpu time    0.0365: real time    0.0366
    SETDIJ:  cpu time    0.0104: real time    0.0104
    TRIAL :  cpu time    0.7192: real time    0.7200
    CORREC:  cpu time    0.0014: real time    0.0014
    --------------------------------------------
      LOOP:  cpu time    0.8195: real time    0.8218

 eigenvalue-minimisations  :     0
 total energy-change (2. order) : 0.5385854E+02  (-0.1619033E+02)
 number of electron       7.9999998 magnetization       0.0000003
 augmentation part        7.9999998 magnetization       0.0000003

 Free energy of the ion-electron system (eV)
  ---------------------------------------------------
  alpha Z        PSCENC =        17.10940282
  Ewald energy   TEWEN  =      -220.32663596
  -Hartree energ DENC   =       -15.88698173
  -exchange      EXHF   =         0.00000000
  -V(xc)+E(xc)   XCENC  =       -14.30441085
  PAW double counting   =       539.58617957     -511.72786268
  entropy T*S    EENTRO =        -0.00000000
  eigenvalues    EBANDS =        49.41739586
  atomic energy  EATOM  =       209.99145059
  ---------------------------------------------------
  free energy    TOTEN  =        53.85853761 eV

  energy without entropy =       53.85853761  energy(sigma->0) =       53.85853761


--------------------------------------------------------------------------------------------------------




--------------------------------------- Iteration      1(   2)  ---------------------------------------


    TRIAL :  cpu time    0.7018: real time    0.7018
    CORREC:  cpu time    0.0026: real time    0.0026
    --------------------------------------------
      LOOP:  cpu time    0.7056: real time    0.7108

 eigenvalue-minimisations  :     0
 total energy-change (2. order) :-0.1090677E+02  (-0.1002629E+02)
 number of electron       7.9999998 magnetization       0.0000003
 augmentation part        7.9999998 magnetization       0.0000003

 Free energy of the ion-electron system (eV)
  ---------------------------------------------------
  alpha Z        PSCENC =        17.10940282
  Ewald energy   TEWEN  =      -220.32663596
  -Hartree energ DENC   =       -15.88698173
  -exchange      EXHF   =         0.00000000
  -V(xc)+E(xc)   XCENC  =       -14.30441085
  PAW double counting   =       539.58617957     -511.72786268
  entropy T*S    EENTRO =        -0.00008909
  eigenvalues    EBANDS =        38.51062987
  atomic energy  EATOM  =       209.99145059
  ---------------------------------------------------
  free energy    TOTEN  =        42.95177161 eV

  energy without entropy =       42.95186071  energy(sigma->0) =       42.95181616


--------------------------------------------------------------------------------------------------------




--------------------------------------- Iteration      1(   3)  ---------------------------------------


    TRIAL :  cpu time    0.6998: real time    0.7002
    CORREC:  cpu time    0.0027: real time    0.0027
    --------------------------------------------
      LOOP:  cpu time    0.7027: real time    0.7031

 eigenvalue-minimisations  :     0
 total energy-change (2. order) :-0.1098304E+02  (-0.1236568E+02)
 number of electron       7.9999998 magnetization       0.0000003
 augmentation part        7.9999998 magnetization       0.0000003

 Free energy of the ion-electron system (eV)
  ---------------------------------------------------
  alpha Z        PSCENC =        17.10940282
  Ewald energy   TEWEN  =      -220.32663596
  -Hartree energ DENC   =       -15.88698173
  -exchange      EXHF   =         0.00000000
  -V(xc)+E(xc)   XCENC  =       -14.30441085
  PAW double counting   =       539.58617957     -511.72786268
  entropy T*S    EENTRO =        -0.00028213
  eigenvalues    EBANDS =        27.52767874
  atomic energy  EATOM  =       209.99145059
  ---------------------------------------------------
  free energy    TOTEN  =        31.96873140 eV

  energy without entropy =       31.96901352  energy(sigma->0) =       31.96887246


--------------------------------------------------------------------------------------------------------




--------------------------------------- Iteration      1(   4)  ---------------------------------------


    TRIAL :  cpu time    0.6992: real time    0.6995
    CORREC:  cpu time    0.0028: real time    0.0028
    --------------------------------------------
      LOOP:  cpu time    0.7023: real time    0.7026

 eigenvalue-minimisations  :     0
 total energy-change (2. order) :-0.1457644E+02  (-0.1049098E+02)
 number of electron       7.9999998 magnetization       0.0000003
 augmentation part        7.9999998 magnetization       0.0000003

 Free energy of the ion-electron system (eV)
  ---------------------------------------------------
  alpha Z        PSCENC =        17.10940282
  Ewald energy   TEWEN  =      -220.32663596
  -Hartree energ DENC   =       -15.88698173
  -exchange      EXHF   =         0.00000000
  -V(xc)+E(xc)   XCENC  =       -14.30441085
  PAW double counting   =       539.58617957     -511.72786268
  entropy T*S    EENTRO =        -0.00131074
  eigenvalues    EBANDS =        12.95142811
  atomic energy  EATOM  =       209.99145059
  ---------------------------------------------------
  free energy    TOTEN  =        17.39228773 eV

  energy without entropy =       17.39359847  energy(sigma->0) =       17.39294310


--------------------------------------------------------------------------------------------------------




--------------------------------------- Iteration      1(   5)  ---------------------------------------


    TRIAL :  cpu time    0.6980: real time    0.6983
    CORREC:  cpu time    0.0026: real time    0.0026
    --------------------------------------------
      LOOP:  cpu time    0.7023: real time    0.7090

 eigenvalue-minimisations  :     0
 total energy-change (2. order) :-0.9266435E+01  (-0.7597798E+01)
 number of electron       7.9999998 magnetization       0.0000003
 augmentation part        7.9999998 magnetization       0.0000003

 Free energy of the ion-electron system (eV)
  ---------------------------------------------------
  alpha Z        PSCENC =        17.10940282
  Ewald energy   TEWEN  =      -220.32663596
  -Hartree energ DENC   =       -15.88698173
  -exchange      EXHF   =         0.00000000
  -V(xc)+E(xc)   XCENC  =       -14.30441085
  PAW double counting   =       539.58617957     -511.72786268
  entropy T*S    EENTRO =        -0.00149989
  eigenvalues    EBANDS =         3.68602197
  atomic energy  EATOM  =       209.99145059
  ---------------------------------------------------
  free energy    TOTEN  =         8.12585298 eV

  energy without entropy =        8.12735287  energy(sigma->0) =        8.12660292


--------------------------------------------------------------------------------------------------------




--------------------------------------- Iteration      1(   6)  ---------------------------------------


    TRIAL :  cpu time    0.6977: real time    0.6978
    CORREC:  cpu time    0.0029: real time    0.0029
    --------------------------------------------
      LOOP:  cpu time    0.7008: real time    0.7009

 eigenvalue-minimisations  :     0
 total energy-change (2. order) :-0.6745780E+01  (-0.3446953E+01)
 number of electron       7.9999998 magnetization       0.0000003
 augmentation part        7.9999998 magnetization       0.0000003

 Free energy of the ion-electron system (eV)
  ---------------------------------------------------
  alpha Z        PSCENC =        17.10940282
  Ewald energy   TEWEN  =      -220.32663596
  -Hartree energ DENC   =       -15.88698173
  -exchange      EXHF   =         0.00000000
  -V(xc)+E(xc)   XCENC  =       -14.30441085
  PAW double counting   =       539.58617957     -511.72786268
  entropy T*S    EENTRO =        -0.00217122
  eigenvalues    EBANDS =        -3.05956892
  atomic energy  EATOM  =       209.99145059
  ---------------------------------------------------
  free energy    TOTEN  =         1.38007294 eV

  energy without entropy =        1.38224417  energy(sigma->0) =        1.38115856


--------------------------------------------------------------------------------------------------------




--------------------------------------- Iteration      1(   7)  ---------------------------------------


    TRIAL :  cpu time    0.6969: real time    0.6974
    CORREC:  cpu time    0.0027: real time    0.0027
    --------------------------------------------
      LOOP:  cpu time    0.6999: real time    0.7003

 eigenvalue-minimisations  :     0
 total energy-change (2. order) :-0.2834696E+01  (-0.1586030E+01)
 number of electron       7.9999998 magnetization       0.0000003
 augmentation part        7.9999998 magnetization       0.0000003

 Free energy of the ion-electron system (eV)
  ---------------------------------------------------
  alpha Z        PSCENC =        17.10940282
  Ewald energy   TEWEN  =      -220.32663596
  -Hartree energ DENC   =       -15.88698173
  -exchange      EXHF   =         0.00000000
  -V(xc)+E(xc)   XCENC  =       -14.30441085
  PAW double counting   =       539.58617957     -511.72786268
  entropy T*S    EENTRO =        -0.00030263
  eigenvalues    EBANDS =        -5.89359347
  atomic energy  EATOM  =       209.99145059
  ---------------------------------------------------
  free energy    TOTEN  =        -1.45462295 eV

  energy without entropy =       -1.45432031  energy(sigma->0) =       -1.45447163


--------------------------------------------------------------------------------------------------------




--------------------------------------- Iteration      1(   8)  ---------------------------------------


    TRIAL :  cpu time    0.7078: real time    0.7090
    CORREC:  cpu time    0.0022: real time    0.0022
    --------------------------------------------
      LOOP:  cpu time    0.7103: real time    0.7115

 eigenvalue-minimisations  :     0
 total energy-change (2. order) :-0.1330618E+01  (-0.7130417E+00)
 number of electron       7.9999998 magnetization       0.0000003
 augmentation part        7.9999998 magnetization       0.0000003

 Free energy of the ion-electron system (eV)
  ---------------------------------------------------
  alpha Z        PSCENC =        17.10940282
  Ewald energy   TEWEN  =      -220.32663596
  -Hartree energ DENC   =       -15.88698173
  -exchange      EXHF   =         0.00000000
  -V(xc)+E(xc)   XCENC  =       -14.30441085
  PAW double counting   =       539.58617957     -511.72786268
  entropy T*S    EENTRO =        -0.00000050
  eigenvalues    EBANDS =        -7.22607985
  atomic energy  EATOM  =       209.99145059
  ---------------------------------------------------
  free energy    TOTEN  =        -2.78524073 eV

  energy without entropy =       -2.78524023  energy(sigma->0) =       -2.78524048


--------------------------------------------------------------------------------------------------------




--------------------------------------- Iteration      1(   9)  ---------------------------------------


    TRIAL :  cpu time    0.6984: real time    0.6988
    CORREC:  cpu time    0.0016: real time    0.0016
    --------------------------------------------
      LOOP:  cpu time    0.7012: real time    0.7021

 eigenvalue-minimisations  :     0
 total energy-change (2. order) :-0.6102416E+00  (-0.3274408E+00)
 number of electron       7.9999998 magnetization       0.0000003
 augmentation part        7.9999998 magnetization       0.0000003

 Free energy of the ion-electron system (eV)
  ---------------------------------------------------
  alpha Z        PSCENC =        17.10940282
  Ewald energy   TEWEN  =      -220.32663596
  -Hartree energ DENC   =       -15.88698173
  -exchange      EXHF   =         0.00000000
  -V(xc)+E(xc)   XCENC  =       -14.30441085
  PAW double counting   =       539.58617957     -511.72786268
  entropy T*S    EENTRO =        -0.00000000
  eigenvalues    EBANDS =        -7.83662355
  atomic energy  EATOM  =       209.99145059
  ---------------------------------------------------
  free energy    TOTEN  =        -3.39548230 eV

  energy without entropy =       -3.39548230  energy(sigma->0) =       -3.39548230


--------------------------------------------------------------------------------------------------------




--------------------------------------- Iteration      1(  10)  ---------------------------------------


    TRIAL :  cpu time    0.6977: real time    0.6980
    CORREC:  cpu time    0.0013: real time    0.0013
    --------------------------------------------
      LOOP:  cpu time    0.6992: real time    0.6995

 eigenvalue-minimisations  :     0
 total energy-change (2. order) :-0.2778249E+00  (-0.1418363E+00)
 number of electron       7.9999998 magnetization       0.0000003
 augmentation part        7.9999998 magnetization       0.0000003

 Free energy of the ion-electron system (eV)
  ---------------------------------------------------
  alpha Z        PSCENC =        17.10940282
  Ewald energy   TEWEN  =      -220.32663596
  -Hartree energ DENC   =       -15.88698173
  -exchange      EXHF   =         0.00000000
  -V(xc)+E(xc)   XCENC  =       -14.30441085
  PAW double counting   =       539.58617957     -511.72786268
  entropy T*S    EENTRO =        -0.00000000
  eigenvalues    EBANDS =        -8.11444896
  atomic energy  EATOM  =       209.99145059
  ---------------------------------------------------
  free energy    TOTEN  =        -3.67330721 eV

  energy without entropy =       -3.67330721  energy(sigma->0) =       -3.67330721


--------------------------------------------------------------------------------------------------------




--------------------------------------- Iteration      1(  11)  ---------------------------------------


    TRIAL :  cpu time    0.6975: real time    0.6975
    CORREC:  cpu time    0.0011: real time    0.0011
    --------------------------------------------
      LOOP:  cpu time    0.6988: real time    0.6989

 eigenvalue-minimisations  :     0
 total energy-change (2. order) :-0.1171497E+00  (-0.5622182E-01)
 number of electron       7.9999998 magnetization       0.0000003
 augmentation part        7.9999998 magnetization       0.0000003

 Free energy of the ion-electron system (eV)
  ---------------------------------------------------
  alpha Z        PSCENC =        17.10940282
  Ewald energy   TEWEN  =      -220.32663596
  -Hartree energ DENC   =       -15.88698173
  -exchange      EXHF   =         0.00000000
  -V(xc)+E(xc)   XCENC  =       -14.30441085
  PAW double counting   =       539.58617957     -511.72786268
  entropy T*S    EENTRO =        -0.00000000
  eigenvalues    EBANDS =        -8.23159864
  atomic energy  EATOM  =       209.99145059
  ---------------------------------------------------
  free energy    TOTEN  =        -3.79045689 eV

  energy without entropy =       -3.79045689  energy(sigma->0) =       -3.79045689


--------------------------------------------------------------------------------------------------------




--------------------------------------- Iteration      1(  12)  ---------------------------------------


    TRIAL :  cpu time    0.6976: real time    0.6980
    CORREC:  cpu time    0.0013: real time    0.0013
    --------------------------------------------
      LOOP:  cpu time    0.6992: real time    0.6996

 eigenvalue-minimisations  :     0
 total energy-change (2. order) :-0.4521076E-01  (-0.2041374E-01)
 number of electron       7.9999998 magnetization       0.0000003
 augmentation part        7.9999998 magnetization       0.0000003

 Free energy of the ion-electron system (eV)
  ---------------------------------------------------
  alpha Z        PSCENC =        17.10940282
  Ewald energy   TEWEN  =      -220.32663596
  -Hartree energ DENC   =       -15.88698173
  -exchange      EXHF   =         0.00000000
  -V(xc)+E(xc)   XCENC  =       -14.30441085
  PAW double counting   =       539.58617957     -511.72786268
  entropy T*S    EENTRO =        -0.00000000
  eigenvalues    EBANDS =        -8.27680939
  atomic energy  EATOM  =       209.99145059
  ---------------------------------------------------
  free energy    TOTEN  =        -3.83566765 eV

  energy without entropy =       -3.83566765  energy(sigma->0) =       -3.83566765


--------------------------------------------------------------------------------------------------------




--------------------------------------- Iteration      1(  13)  ---------------------------------------


    TRIAL :  cpu time    0.6974: real time    0.6978
    CORREC:  cpu time    0.0012: real time    0.0012
    --------------------------------------------
      LOOP:  cpu time    0.6988: real time    0.6992

 eigenvalue-minimisations  :     0
 total energy-change (2. order) :-0.1604837E-01  (-0.6849166E-02)
 number of electron       7.9999998 magnetization       0.0000003
 augmentation part        7.9999998 magnetization       0.0000003

 Free energy of the ion-electron system (eV)
  ---------------------------------------------------
  alpha Z        PSCENC =        17.10940282
  Ewald energy   TEWEN  =      -220.32663596
  -Hartree energ DENC   =       -15.88698173
  -exchange      EXHF   =         0.00000000
  -V(xc)+E(xc)   XCENC  =       -14.30441085
  PAW double counting   =       539.58617957     -511.72786268
  entropy T*S    EENTRO =        -0.00000000
  eigenvalues    EBANDS =        -8.29285777
  atomic energy  EATOM  =       209.99145059
  ---------------------------------------------------
  free energy    TOTEN  =        -3.85171602 eV

  energy without entropy =       -3.85171602  energy(sigma->0) =       -3.85171602


--------------------------------------------------------------------------------------------------------




--------------------------------------- Iteration      1(  14)  ---------------------------------------


    TRIAL :  cpu time    0.6971: real time    0.6974
    CORREC:  cpu time    0.0012: real time    0.0012
    --------------------------------------------
      LOOP:  cpu time    0.6985: real time    0.6988

 eigenvalue-minimisations  :     0
 total energy-change (2. order) :-0.5289414E-02  (-0.2139439E-02)
 number of electron       7.9999998 magnetization       0.0000003
 augmentation part        7.9999998 magnetization       0.0000003

 Free energy of the ion-electron system (eV)
  ---------------------------------------------------
  alpha Z        PSCENC =        17.10940282
  Ewald energy   TEWEN  =      -220.32663596
  -Hartree energ DENC   =       -15.88698173
  -exchange      EXHF   =         0.00000000
  -V(xc)+E(xc)   XCENC  =       -14.30441085
  PAW double counting   =       539.58617957     -511.72786268
  entropy T*S    EENTRO =        -0.00000000
  eigenvalues    EBANDS =        -8.29814718
  atomic energy  EATOM  =       209.99145059
  ---------------------------------------------------
  free energy    TOTEN  =        -3.85700543 eV

  energy without entropy =       -3.85700543  energy(sigma->0) =       -3.85700543


--------------------------------------------------------------------------------------------------------




--------------------------------------- Iteration      1(  15)  ---------------------------------------


    TRIAL :  cpu time    0.6969: real time    0.6970
    CORREC:  cpu time    0.0012: real time    0.0012
    --------------------------------------------
      LOOP:  cpu time    0.6984: real time    0.6985

 eigenvalue-minimisations  :     0
 total energy-change (2. order) :-0.1624763E-02  (-0.6189862E-03)
 number of electron       7.9999998 magnetization       0.0000003
 augmentation part        7.9999998 magnetization       0.0000003

 Free energy of the ion-electron system (eV)
  ---------------------------------------------------
  alpha Z        PSCENC =        17.10940282
  Ewald energy   TEWEN  =      -220.32663596
  -Hartree energ DENC   =       -15.88698173
  -exchange      EXHF   =         0.00000000
  -V(xc)+E(xc)   XCENC  =       -14.30441085
  PAW double counting   =       539.58617957     -511.72786268
  entropy T*S    EENTRO =        -0.00000000
  eigenvalues    EBANDS =        -8.29977195
  atomic energy  EATOM  =       209.99145059
  ---------------------------------------------------
  free energy    TOTEN  =        -3.85863020 eV

  energy without entropy =       -3.85863020  energy(sigma->0) =       -3.85863020


--------------------------------------------------------------------------------------------------------




--------------------------------------- Iteration      1(  16)  ---------------------------------------


    TRIAL :  cpu time    0.6964: real time    0.6969
    CORREC:  cpu time    0.0012: real time    0.0012
    --------------------------------------------
      LOOP:  cpu time    0.6978: real time    0.6983

 eigenvalue-minimisations  :     0
 total energy-change (2. order) :-0.4602959E-03  (-0.1620815E-03)
 number of electron       7.9999998 magnetization       0.0000003
 augmentation part        7.9999998 magnetization       0.0000003

 Free energy of the ion-electron system (eV)
  ---------------------------------------------------
  alpha Z        PSCENC =        17.10940282
  Ewald energy   TEWEN  =      -220.32663596
  -Hartree energ DENC   =       -15.88698173
  -exchange      EXHF   =         0.00000000
  -V(xc)+E(xc)   XCENC  =       -14.30441085
  PAW double counting   =       539.58617957     -511.72786268
  entropy T*S    EENTRO =        -0.00000000
  eigenvalues    EBANDS =        -8.30023224
  atomic energy  EATOM  =       209.99145059
  ---------------------------------------------------
  free energy    TOTEN  =        -3.85909049 eV

  energy without entropy =       -3.85909049  energy(sigma->0) =       -3.85909049


--------------------------------------------------------------------------------------------------------




--------------------------------------- Iteration      1(  17)  ---------------------------------------


    TRIAL :  cpu time    0.6967: real time    0.6970
    CORREC:  cpu time    0.0012: real time    0.0012
    --------------------------------------------
      LOOP:  cpu time    0.6981: real time    0.6984

 eigenvalue-minimisations  :     0
 total energy-change (2. order) :-0.1166995E-03  (-0.3648765E-04)
 number of electron       7.9999998 magnetization       0.0000003
 augmentation part        7.9999998 magnetization       0.0000003

 Free energy of the ion-electron system (eV)
  ---------------------------------------------------
  alpha Z        PSCENC =        17.10940282
  Ewald energy   TEWEN  =      -220.32663596
  -Hartree energ DENC   =       -15.88698173
  -exchange      EXHF   =         0.00000000
  -V(xc)+E(xc)   XCENC  =       -14.30441085
  PAW double counting   =       539.58617957     -511.72786268
  entropy T*S    EENTRO =        -0.00000000
  eigenvalues    EBANDS =        -8.30034894
  atomic energy  EATOM  =       209.99145059
  ---------------------------------------------------
  free energy    TOTEN  =        -3.85920719 eV

  energy without entropy =       -3.85920719  energy(sigma->0) =       -3.85920719


--------------------------------------------------------------------------------------------------------




--------------------------------------- Iteration      1(  18)  ---------------------------------------


    TRIAL :  cpu time    0.6967: real time    0.6972
    CORREC:  cpu time    0.0014: real time    0.0014
    EDDIAG:  cpu time    0.2998: real time    0.2999
    --------------------------------------------
      LOOP:  cpu time    0.9982: real time    0.9987

 eigenvalue-minimisations  :     0
 total energy-change (2. order) :-0.2474845E-04  (-0.6226952E-05)
 number of electron       7.9999998 magnetization       0.0000003
 augmentation part        7.9999998 magnetization       0.0000003

 Free energy of the ion-electron system (eV)
  ---------------------------------------------------
  alpha Z        PSCENC =        17.10940282
  Ewald energy   TEWEN  =      -220.32663596
  -Hartree energ DENC   =       -15.88698173
  -exchange      EXHF   =         0.00000000
  -V(xc)+E(xc)   XCENC  =       -14.30441085
  PAW double counting   =       539.58617957     -511.72786268
  entropy T*S    EENTRO =        -0.00000000
  eigenvalues    EBANDS =        -8.30037369
  atomic energy  EATOM  =       209.99145059
  ---------------------------------------------------
  free energy    TOTEN  =        -3.85923194 eV

  energy without entropy =       -3.85923194  energy(sigma->0) =       -3.85923194


--------------------------------------------------------------------------------------------------------


  average scaling for gradient   1.5045


 average (electrostatic) potential at core
  the test charge radii are     1.1631
  (the norm of the test charge is              1.0000)
       1 -32.7973       2 -32.7973
 
 
 
 E-fermi :   3.7700     XC(G=0):  -9.1483     alpha+bet : -9.2781


 spin component 1

 k-point     1 :       0.5000    0.5000    0.5000
  band No.  band energies     occupation 
      1      -6.8495      1.00000
      2      -3.8944      1.00000
      3       2.1099      1.00000
      4       2.1099      1.00000
      5       4.0863      0.00000
      6       7.4464      0.00000
      7       7.4464      0.00000
      8      10.9389      0.00000
      9      14.3304      0.00000
     10      14.8801      0.00000
     11      14.9532      0.00000
     12      14.9532      0.00000
     13      16.0766      0.00000
     14      16.0766      0.00000
     15      22.6085      0.00000
     16      23.8855      0.00000
     17      25.3293      0.00000
     18      25.3293      0.00000
     19      25.5018      0.00000
     20      25.5018      0.00000
     21      28.8175      0.00000
     22      29.9944      0.00000
     23      30.2907      0.00000
     24      30.2907      0.00000
     25      30.8043      0.00000
     26      30.8043      0.00000
     27      31.7135      0.00000
     28      35.1338      0.00000
     29      35.1338      0.00000
     30      35.3271      0.00000
     31      35.3271      0.00000
     32      36.1599      0.00000
     33      37.2619      0.00000
     34      37.4081      0.00000
     35      42.5242      0.00000
     36      42.5282      0.00000
     37      42.7859      0.00000
     38      43.7224      0.00000
     39      43.7244      0.00000
     40      44.7324      0.00000
     41      48.3362      0.00000
     42      48.3363      0.00000
     43      50.7452      0.00000
     44      50.9059      0.00000
     45      52.7298      0.00000
     46      54.3915      0.00000
     47      54.4984      0.00000
     48      58.6971      0.00000
     49      58.8966      0.00000
     50      59.1169      0.00000
     51      61.2398      0.00000
     52      63.0200      0.00000
     53      67.4607      0.00000
     54      69.6922      0.00000

 k-point     2 :       0.4898    0.4898    0.4898
  band No.  band energies     occupation 
      1      -6.8544      1.00000
      2      -3.8868      1.00000
      3       2.1108      1.00000
      4       2.1108      1.00000
      5       4.0871      0.00000
      6       7.4467      0.00000
      7       7.4467      0.00000
      8      10.9400      0.00000
      9      14.2606      0.00000
     10      14.9179      0.00000
     11      14.9179      0.00000
     12      14.9481      0.00000
     13      16.1158      0.00000
     14      16.1158      0.00000
     15      22.5405      0.00000
     16      23.9587      0.00000
     17      25.1055      0.00000
     18      25.1055      0.00000
     19      25.7276      0.00000
     20      25.7276      0.00000
     21      28.7363      0.00000
     22      30.0764      0.00000
     23      30.2894      0.00000
     24      30.2894      0.00000
     25      30.8026      0.00000
     26      30.8026      0.00000
     27      31.7111      0.00000
     28      35.1358      0.00000
     29      35.1358      0.00000
     30      35.3338      0.00000
     31      35.3338      0.00000
     32      36.1518      0.00000
     33      37.2672      0.00000
     34      37.4208      0.00000
     35      42.5243      0.00000
     36      42.5282      0.00000
     37      42.7864      0.00000
     38      43.7216      0.00000
     39      43.7234      0.00000
     40      44.7329      0.00000
     41      48.1107      0.00000
     42      48.1125      0.00000
     43      50.4722      0.00000
     44      51.3168      0.00000
     45      52.1406      0.00000
     46      54.6539      0.00000
     47      55.9620      0.00000
     48      58.0647      0.00000
     49      58.8336      0.00000
     50      59.6433      0.00000
     51      62.0436      0.00000
     52      63.3151      0.00000
     53      65.6015      0.00000
     54      68.8195      0.00000

 k-point     3 :       0.4796    0.4796    0.4796
  band No.  band energies     occupation 
      1      -6.8690      1.00000
      2      -3.8643      1.00000
      3       2.1136      1.00000
      4       2.1136      1.00000
      5       4.0895      0.00000
      6       7.4475      0.00000
      7       7.4475      0.00000
      8      10.9433      0.00000
      9      14.1064      0.00000
     10      14.8240      0.00000
     11      14.8240      0.00000
     12      15.0969      0.00000
     13      16.2212      0.00000
     14      16.2212      0.00000
     15      22.3702      0.00000
     16      24.1441      0.00000
     17      24.8156      0.00000
     18      24.8156      0.00000
     19      26.0226      0.00000
     20      26.0226      0.00000
     21      28.5381      0.00000
     22      30.2768      0.00000
     23      30.2853      0.00000
     24      30.2853      0.00000
     25      30.7970      0.00000
     26      30.7970      0.00000
     27      31.7038      0.00000
     28      35.1420      0.00000
     29      35.1420      0.00000
     30      35.3535      0.00000
     31      35.3535      0.00000
     32      36.1288      0.00000
     33      37.2831      0.00000
     34      37.4577      0.00000
     35      42.5253      0.00000
     36      42.5398      0.00000
     37      42.7882      0.00000
     38      43.7198      0.00000
     39      43.7251      0.00000
     40      44.7225      0.00000
     41      47.8422      0.00000
     42      47.8522      0.00000
     43      50.1220      0.00000
     44      50.1809      0.00000
     45      50.7800      0.00000
     46      53.6531      0.00000
     47      53.8504      0.00000
     48      55.1440      0.00000
     49      58.0742      0.00000
     50      59.2902      0.00000
     51      60.8910      0.00000
     52      61.6080      0.00000
     53      63.9169      0.00000
     54      65.9575      0.00000

 k-point     4 :       0.4694    0.4694    0.4694
  band No.  band energies     occupation 
      1      -6.8928      1.00000
      2      -3.8274      1.00000
      3       2.1182      1.00000
      4       2.1182      1.00000
      5       4.0936      0.00000
      6       7.4489      0.00000
      7       7.4489      0.00000
      8      10.9486      0.00000
      9      13.9227      0.00000
     10      14.6937      0.00000
     11      14.6937      0.00000
     12      15.2711      0.00000
     13      16.3708      0.00000
     14      16.3708      0.00000
     15      22.1499      0.00000
     16      24.3900      0.00000
     17      24.5239      0.00000
     18      24.5239      0.00000
     19      26.3227      0.00000
     20      26.3227      0.00000
     21      28.2858      0.00000
     22      30.2787      0.00000
     23      30.2789      0.00000
     24      30.5329      0.00000
     25      30.7880      0.00000
     26      30.7881      0.00000
     27      31.6921      0.00000
     28      35.1538      0.00000
     29      35.1616      0.00000
     30      35.3859      0.00000
     31      35.3870      0.00000
     32      36.0943      0.00000
     33      37.3387      0.00000
     34      37.5119      0.00000
     35      42.6384      0.00000
     36      42.8284      0.00000
     37      43.1707      0.00000
     38      44.0732      0.00000
     39      44.6569      0.00000
     40      45.0330      0.00000
     41      47.2923      0.00000
     42      49.2472      0.00000
     43      50.8328      0.00000
     44      52.7583      0.00000
     45      52.8093      0.00000
     46      53.5684      0.00000
     47      55.1322      0.00000
     48      56.6360      0.00000
     49      59.4664      0.00000
     50      60.1874      0.00000
     51      61.3006      0.00000
     52      64.2934      0.00000
     53      64.7557      0.00000
     54      67.2217      0.00000

 k-point     5 :       0.4592    0.4592    0.4592
  band No.  band energies     occupation 
      1      -6.9251      1.00000
      2      -3.7767      1.00000
      3       2.1247      1.00000
      4       2.1247      1.00000
      5       4.0993      0.00000
      6       7.4508      0.00000
      7       7.4508      0.00000
      8      10.9559      0.00000
      9      13.7283      0.00000
     10      14.5440      0.00000
     11      14.5440      0.00000
     12      15.4511      0.00000
     13      16.5475      0.00000
     14      16.5475      0.00000
     15      21.9102      0.00000
     16      24.2335      0.00000
     17      24.2335      0.00000
     18      24.6653      0.00000
     19      26.6244      0.00000
     20      26.6244      0.00000
     21      28.0117      0.00000
     22      30.2698      0.00000
     23      30.2698      0.00000
     24      30.7758      0.00000
     25      30.7758      0.00000
     26      30.8125      0.00000
     27      31.6751      0.00000
     28      35.1703      0.00000
     29      35.1703      0.00000
     30      35.4278      0.00000
     31      35.4278      0.00000
     32      36.0524      0.00000
     33      37.3462      0.00000
     34      37.5917      0.00000
     35      42.5228      0.00000
     36      42.5230      0.00000
     37      42.8040      0.00000
     38      43.7072      0.00000
     39      43.7073      0.00000
     40      44.7409      0.00000
     41      47.2343      0.00000
     42      47.2353      0.00000
     43      49.7131      0.00000
     44      50.3460      0.00000
     45      51.2895      0.00000
     46      53.2292      0.00000
     47      53.7400      0.00000
     48      54.8700      0.00000
     49      56.7824      0.00000
     50      57.9333      0.00000
     51      58.5912      0.00000
     52      62.4331      0.00000
     53      63.3198      0.00000
     54      66.9476      0.00000

 k-point     6 :       0.4490    0.4490    0.4490
  band No.  band energies     occupation 
      1      -6.9651      1.00000
      2      -3.7130      1.00000
      3       2.1331      1.00000
      4       2.1331      1.00000
      5       4.1065      0.00000
      6       7.4530      0.00000
      7       7.4530      0.00000
      8      10.9648      0.00000
      9      13.5297      0.00000
     10      14.3851      0.00000
     11      14.3851      0.00000
     12      15.6291      0.00000
     13      16.7413      0.00000
     14      16.7413      0.00000
     15      21.6669      0.00000
     16      23.9451      0.00000
     17      23.9451      0.00000
     18      24.9540      0.00000
     19      26.9264      0.00000
     20      26.9264      0.00000
     21      27.7313      0.00000
     22      30.2590      0.00000
     23      30.2590      0.00000
     24      30.7610      0.00000
     25      30.7610      0.00000
     26      31.1009      0.00000
     27      31.6541      0.00000
     28      35.1940      0.00000
     29      35.1940      0.00000
     30      35.4801      0.00000
     31      35.4801      0.00000
     32      36.0079      0.00000
     33      37.3931      0.00000
     34      37.6818      0.00000
     35      42.5223      0.00000
     36      42.5225      0.00000
     37      42.8142      0.00000
     38      43.6948      0.00000
     39      43.6949      0.00000
     40      44.7459      0.00000
     41      46.9071      0.00000
     42      46.9077      0.00000
     43      49.4409      0.00000
     44      50.3088      0.00000
     45      51.1501      0.00000
     46      53.0389      0.00000
     47      53.2335      0.00000
     48      54.7915      0.00000
     49      56.9350      0.00000
     50      57.5772      0.00000
     51      58.7570      0.00000
     52      60.6059      0.00000
     53      62.8018      0.00000
     54      65.9369      0.00000

 k-point     7 :       0.4388    0.4388    0.4388
  band No.  band energies     occupation 
      1      -7.0118      1.00000
      2      -3.6374      1.00000
      3       2.1433      1.00000
      4       2.1433      1.00000
      5       4.1154      0.00000
      6       7.4555      0.00000
      7       7.4555      0.00000
      8      10.9752      0.00000
      9      13.3301      0.00000
[...]
     51      64.5958      0.00000
     52      68.5359      0.00000
     53      69.4800      0.00000
     54      75.7453      0.00000

 k-point    97 :       0.4694    0.0000    0.4694
  band No.  band energies     occupation 
      1      -5.5158      1.00000
      2      -4.6218      1.00000
      3       0.4522      1.00000
      4       0.4522      1.00000
      5       4.4391      0.00000
      6       4.6888      0.00000
      7      12.9990      0.00000
      8      12.9991      0.00000
      9      14.8624      0.00000
     10      15.8266      0.00000
     11      16.5980      0.00000
     12      16.5980      0.00000
     13      16.8733      0.00000
     14      17.8946      0.00000
     15      21.9496      0.00000
     16      21.9496      0.00000
     17      22.0223      0.00000
     18      22.7524      0.00000
     19      23.8320      0.00000
     20      23.8481      0.00000
     21      23.8659      0.00000
     22      24.5062      0.00000
     23      30.4502      0.00000
     24      31.3014      0.00000
     25      32.1518      0.00000
     26      32.1817      0.00000
     27      35.2193      0.00000
     28      36.0254      0.00000
     29      36.2001      0.00000
     30      37.4596      0.00000
     31      39.1119      0.00000
     32      39.1329      0.00000
     33      39.1729      0.00000
     34      42.1120      0.00000
     35      42.1825      0.00000
     36      42.6593      0.00000
     37      43.1027      0.00000
     38      44.6512      0.00000
     39      45.3577      0.00000
     40      47.9057      0.00000
     41      51.1070      0.00000
     42      53.1761      0.00000
     43      53.7157      0.00000
     44      55.3467      0.00000
     45      57.4991      0.00000
     46      57.8053      0.00000
     47      58.2502      0.00000
     48      61.4408      0.00000
     49      62.4481      0.00000
     50      64.2297      0.00000
     51      64.5893      0.00000
     52      68.6738      0.00000
     53      69.6966      0.00000
     54      75.7867      0.00000

 k-point    98 :       0.4796    0.0000    0.4796
  band No.  band energies     occupation 
      1      -5.3725      1.00000
      2      -4.7763      1.00000
      3       0.4432      1.00000
      4       0.4432      1.00000
      5       4.4699      0.00000
      6       4.6364      0.00000
      7      13.0670      0.00000
      8      13.0670      0.00000
      9      15.0409      0.00000
     10      15.6885      0.00000
     11      16.5206      0.00000
     12      16.5206      0.00000
     13      17.0348      0.00000
     14      17.7156      0.00000
     15      22.2553      0.00000
     16      22.2553      0.00000
     17      22.3042      0.00000
     18      22.9980      0.00000
     19      23.5226      0.00000
     20      23.5286      0.00000
     21      23.5354      0.00000
     22      24.1890      0.00000
     23      30.5873      0.00000
     24      31.1751      0.00000
     25      32.1869      0.00000
     26      32.2202      0.00000
     27      35.6559      0.00000
     28      35.9850      0.00000
     29      36.1097      0.00000
     30      37.5824      0.00000
     31      39.0332      0.00000
     32      39.1419      0.00000
     33      39.1526      0.00000
     34      42.0573      0.00000
     35      42.0747      0.00000
     36      42.6660      0.00000
     37      42.9993      0.00000
     38      44.8668      0.00000
     39      45.7074      0.00000
     40      48.0536      0.00000
     41      50.7203      0.00000
     42      53.2282      0.00000
     43      53.9572      0.00000
     44      55.6167      0.00000
     45      57.8134      0.00000
     46      57.9102      0.00000
     47      58.4441      0.00000
     48      61.4195      0.00000
     49      62.3809      0.00000
     50      64.2976      0.00000
     51      64.3299      0.00000
     52      68.8801      0.00000
     53      69.6367      0.00000
     54      75.9742      0.00000

 k-point    99 :       0.4898    0.0000    0.4898
  band No.  band energies     occupation 
      1      -5.2269      1.00000
      2      -4.9287      1.00000
      3       0.4378      1.00000
      4       0.4378      1.00000
      5       4.5050      0.00000
      6       4.5883      0.00000
      7      13.1092      0.00000
      8      13.1092      0.00000
      9      15.2139      0.00000
     10      15.5392      0.00000
     11      16.4727      0.00000
     12      16.4727      0.00000
     13      17.1997      0.00000
     14      17.5401      0.00000
     15      22.5660      0.00000
     16      22.5660      0.00000
     17      22.5905      0.00000
     18      23.1399      0.00000
     19      23.2142      0.00000
     20      23.2377      0.00000
     21      23.3088      0.00000
     22      23.8825      0.00000
     23      30.7216      0.00000
     24      31.0456      0.00000
     25      32.2080      0.00000
     26      32.2470      0.00000
     27      35.9866      0.00000
     28      36.0349      0.00000
     29      36.0432      0.00000
     30      37.6894      0.00000
     31      38.9446      0.00000
     32      39.1282      0.00000
     33      39.1498      0.00000
     34      41.6859      0.00000
     35      42.0166      0.00000
     36      42.6664      0.00000
     37      42.9553      0.00000
     38      45.0060      0.00000
     39      45.9985      0.00000
     40      48.1923      0.00000
     41      50.1645      0.00000
     42      53.2110      0.00000
     43      54.2655      0.00000
     44      55.8180      0.00000
     45      57.8405      0.00000
     46      58.3037      0.00000
     47      58.7312      0.00000
     48      61.3534      0.00000
     49      62.2425      0.00000
     50      64.0301      0.00000
     51      64.6546      0.00000
     52      69.1618      0.00000
     53      69.3165      0.00000
     54      76.2498      0.00000

 k-point   100 :       0.5000    0.0000    0.5000
  band No.  band energies     occupation 
      1      -5.0789      1.00000
      2      -5.0789      1.00000
      3       0.4360      1.00000
      4       0.4360      1.00000
      5       4.5445      0.00000
      6       4.5445      0.00000
      7      13.1235      0.00000
      8      13.1236      0.00000
      9      15.3804      0.00000
     10      15.3805      0.00000
     11      16.4564      0.00000
     12      16.4565      0.00000
     13      17.3681      0.00000
     14      17.3682      0.00000
     15      22.8779      0.00000
     16      22.8800      0.00000
     17      22.8814      0.00000
     18      22.8814      0.00000
     19      22.8858      0.00000
     20      22.8879      0.00000
     21      23.5912      0.00000
     22      23.5916      0.00000
     23      30.8538      0.00000
     24      30.9174      0.00000
     25      32.2182      0.00000
     26      32.2649      0.00000
     27      35.9335      0.00000
     28      35.9995      0.00000
     29      36.4631      0.00000
     30      37.7864      0.00000
     31      38.9026      0.00000
     32      39.1117      0.00000
     33      39.1630      0.00000
     34      41.5812      0.00000
     35      41.9597      0.00000
     36      42.6751      0.00000
     37      43.1191      0.00000
     38      45.0608      0.00000
     39      46.2493      0.00000
     40      48.2124      0.00000
     41      49.4667      0.00000
     42      53.1460      0.00000
     43      54.6295      0.00000
     44      55.9201      0.00000
     45      58.0519      0.00000
     46      58.6727      0.00000
     47      59.0353      0.00000
     48      61.3979      0.00000
     49      61.6789      0.00000
     50      63.2047      0.00000
     51      66.0832      0.00000
     52      67.7803      0.00000
     53      71.1258      0.00000
     54      76.4916      0.00000


--------------------------------------------------------------------------------------------------------


 soft charge-density along one line, spin component           1
         0         1         2         3         4         5         6         7         8         9
 total charge-density along one line
 
 soft charge-density along one line, spin component           2
         0         1         2         3         4         5         6         7         8         9
 total charge-density along one line
 
 pseudopotential strength for first ion, spin component:           1
 14.455   0.000  18.034   0.000   0.000   0.000   0.000   0.000   0.000   0.000   0.000   0.000   0.000   0.000   0.000   0.000
 18.034   0.000  22.514   0.000   0.000   0.000   0.000   0.000   0.000   0.000   0.000   0.000   0.000   0.000   0.000   0.000
  0.000   0.000   0.000   0.000   2.986  -0.000   0.000  -0.000   0.000   0.000   5.125  -0.000   0.000  -0.000   0.000   0.000
  0.000   0.000   0.000   0.000   0.000   0.000   2.986  -0.000   0.000  -0.000   0.000   0.000   5.125  -0.000   0.000  -0.000
  0.000   0.000   0.000   0.000   0.000  -0.000   0.000   0.000   2.986  -0.000   0.000  -0.000   0.000   0.000   5.125  -0.000
  0.000   0.000   0.000   0.000   5.125  -0.000   0.000  -0.000   0.000   0.000   8.835  -0.000   0.000  -0.000   0.000   0.000
  0.000   0.000   0.000   0.000   0.000   0.000   5.125  -0.000   0.000  -0.000   0.000   0.000   8.835  -0.000   0.000  -0.000
  0.000   0.000   0.000   0.000   0.000  -0.000   0.000   0.000   5.125  -0.000   0.000  -0.000   0.000   0.000   8.835  -0.000
  0.000   0.000   0.000   0.000   0.000   0.000   0.001   0.000   0.000   0.000   0.000   0.000   0.001   0.000   0.000   0.000
  0.000   0.000   0.000   0.000   0.000   0.000   0.000   0.000   0.001   0.000   0.000   0.000   0.000   0.000   0.001   0.000
 -0.000   0.000  -0.000   0.000   0.000   0.000  -0.000   0.000   0.000   0.000   0.000   0.000  -0.000   0.000   0.000   0.000
  0.000   0.000   0.000   0.000   0.001   0.000   0.000   0.000   0.000   0.000   0.001   0.000   0.000   0.000   0.000   0.000
 -0.000   0.000  -0.000   0.000   0.000   0.000   0.000   0.000  -0.000   0.000   0.000   0.000   0.000   0.000  -0.000   0.000
 pseudopotential strength for first ion, spin component:           2
 14.455   0.000  18.034   0.000   0.000   0.000   0.000   0.000   0.000   0.000   0.000   0.000   0.000   0.000   0.000   0.000
 18.034   0.000  22.514   0.000   0.000   0.000   0.000   0.000   0.000   0.000   0.000   0.000   0.000   0.000   0.000   0.000
  0.000   0.000   0.000   0.000   2.986   0.000   0.000  -0.000   0.000   0.000   5.125   0.000   0.000  -0.000   0.000   0.000
  0.000   0.000   0.000   0.000   0.000   0.000   2.986   0.000   0.000  -0.000   0.000   0.000   5.125   0.000   0.000  -0.000
  0.000   0.000   0.000   0.000   0.000  -0.000   0.000   0.000   2.986   0.000   0.000  -0.000   0.000   0.000   5.125   0.000
  0.000   0.000   0.000   0.000   5.125   0.000   0.000  -0.000   0.000   0.000   8.835   0.000   0.000  -0.000   0.000   0.000
  0.000   0.000   0.000   0.000   0.000   0.000   5.125   0.000   0.000  -0.000   0.000   0.000   8.835   0.000   0.000  -0.000
  0.000   0.000   0.000   0.000   0.000  -0.000   0.000   0.000   5.125   0.000   0.000  -0.000   0.000   0.000   8.835   0.000
  0.000   0.000   0.000   0.000   0.000   0.000   0.001   0.000   0.000   0.000   0.000   0.000   0.001   0.000   0.000   0.000
  0.000   0.000   0.000   0.000   0.000   0.000   0.000   0.000   0.001   0.000   0.000   0.000   0.000   0.000   0.001   0.000
 -0.000   0.000  -0.000   0.000   0.000   0.000  -0.000   0.000   0.000   0.000   0.000   0.000  -0.000   0.000   0.000   0.000
  0.000   0.000   0.000   0.000   0.001   0.000   0.000   0.000   0.000   0.000   0.001   0.000   0.000   0.000   0.000   0.000
 -0.000   0.000  -0.000   0.000   0.000   0.000   0.000   0.000  -0.000   0.000   0.000   0.000   0.000   0.000  -0.000   0.000
 total augmentation occupancy for first ion, spin component:           1
  2.000   0.000   0.000   0.000   0.000   0.000   0.000   0.000   0.000   0.000   0.000   0.000   0.000
  0.000   0.000   0.000   0.000   0.000   0.000   0.000   0.000   0.000   0.000   0.000   0.000   0.000
  0.000   0.000   0.667   0.000   0.000   0.000   0.000   0.000   0.000   0.000   0.000   0.000   0.000
  0.000   0.000   0.000   0.667   0.000   0.000   0.000   0.000   0.000   0.000   0.000   0.000   0.000
  0.000   0.000   0.000   0.000   0.667   0.000   0.000   0.000   0.000   0.000   0.000   0.000   0.000
  0.000   0.000   0.000   0.000   0.000   0.000   0.000   0.000   0.000   0.000   0.000   0.000   0.000
  0.000   0.000   0.000   0.000   0.000   0.000   0.000   0.000   0.000   0.000   0.000   0.000   0.000
  0.000   0.000   0.000   0.000   0.000   0.000   0.000   0.000   0.000   0.000   0.000   0.000   0.000
  0.000   0.000   0.000   0.000   0.000   0.000   0.000   0.000   0.000   0.000   0.000   0.000   0.000
  0.000   0.000   0.000   0.000   0.000   0.000   0.000   0.000   0.000   0.000   0.000   0.000   0.000
  0.000   0.000   0.000   0.000   0.000   0.000   0.000   0.000   0.000   0.000   0.000   0.000   0.000
  0.000   0.000   0.000   0.000   0.000   0.000   0.000   0.000   0.000   0.000   0.000   0.000   0.000
  0.000   0.000   0.000   0.000   0.000   0.000   0.000   0.000   0.000   0.000   0.000   0.000   0.000
 total augmentation occupancy for first ion, spin component:           2
  0.000   0.000   0.000   0.000   0.000   0.000   0.000   0.000   0.000   0.000   0.000   0.000   0.000
  0.000   0.000   0.000   0.000   0.000   0.000   0.000   0.000   0.000   0.000   0.000   0.000   0.000
  0.000   0.000   0.000   0.000   0.000   0.000   0.000   0.000   0.000   0.000   0.000   0.000   0.000
  0.000   0.000   0.000   0.000   0.000   0.000   0.000   0.000   0.000   0.000   0.000   0.000   0.000
  0.000   0.000   0.000   0.000   0.000   0.000   0.000   0.000   0.000   0.000   0.000   0.000   0.000
  0.000   0.000   0.000   0.000   0.000   0.000   0.000   0.000   0.000   0.000   0.000   0.000   0.000
  0.000   0.000   0.000   0.000   0.000   0.000   0.000   0.000   0.000   0.000   0.000   0.000   0.000
  0.000   0.000   0.000   0.000   0.000   0.000   0.000   0.000   0.000   0.000   0.000   0.000   0.000
  0.000   0.000   0.000   0.000   0.000   0.000   0.000   0.000   0.000   0.000   0.000   0.000   0.000
  0.000   0.000   0.000   0.000   0.000   0.000   0.000   0.000   0.000   0.000   0.000   0.000   0.000
  0.000   0.000   0.000   0.000   0.000   0.000   0.000   0.000   0.000   0.000   0.000   0.000   0.000
  0.000   0.000   0.000   0.000   0.000   0.000   0.000   0.000   0.000   0.000   0.000   0.000   0.000
  0.000   0.000   0.000   0.000   0.000   0.000   0.000   0.000   0.000   0.000   0.000   0.000   0.000


------------------------ aborting loop because EDIFF is reached ----------------------------------------


    CHARGE:  cpu time    0.0243: real time    0.0243
    FORLOC:  cpu time    0.0009: real time    0.0009
    FORNL :  cpu time    0.0885: real time    0.0885
    STRESS:  cpu time    0.2540: real time    0.2543
    FORCOR:  cpu time    0.0341: real time    0.0356
    FORHAR:  cpu time    0.0048: real time    0.0048
    OFIELD:  cpu time    0.0002: real time    0.0002

  FORCE on cell =-STRESS in cart. coord.  units (eV):
  Direction    XX          YY          ZZ          XY          YZ          ZX
  --------------------------------------------------------------------------------------
  Alpha Z    17.10940    17.10940    17.10940
  Ewald     -73.44225   -73.44225   -73.44225     0.00000     0.00000     0.00000
  Hartree     6.49346     6.49346     6.49346     0.00000     0.00000     0.00000
  E(xc)     -28.13647   -28.13647   -28.13647     0.00000     0.00000     0.00000
  Local     -26.63103   -26.63103   -26.63103     0.00000     0.00000     0.00000
  n-local    42.57540    39.68967    42.57541    -1.09767    -1.09729    -1.09761
  augment     2.28719     2.28719     2.28719    -0.00000    -0.00000    -0.00000
  Kinetic    72.33731    64.70686    72.33755    -2.57269    -2.57322    -2.57263
  Fock        0.00000     0.00000     0.00000     0.00000     0.00000     0.00000
  -------------------------------------------------------------------------------------
  Total       9.08770     9.08770     9.08770     0.00000     0.00000    -0.00000
  in kB     325.84080   325.84080   325.84080     0.00000     0.00000    -0.00000
  external pressure =      325.84 kB  Pullay stress =        0.00 kB


 VOLUME and BASIS-vectors are now :
 -----------------------------------------------------------------------------
  energy-cutoff  :      450.00
  volume of cell :       44.68
      direct lattice vectors                 reciprocal lattice vectors
     0.000000000  2.816500000  2.816500000    -0.177525297  0.177525297  0.177525297
     2.816500000  0.000000000  2.816500000     0.177525297 -0.177525297  0.177525297
     2.816500000  2.816500000  0.000000000     0.177525297  0.177525297 -0.177525297

  length of vectors
     3.983132498  3.983132498  3.983132498     0.307482835  0.307482835  0.307482835


 FORCES acting on ions
    electron-ion (+dipol)            ewald-force                    non-local-force                 convergence-correction
 -----------------------------------------------------------------------------------------------
   -.212E-06 -.212E-06 -.212E-06   0.204E-14 0.421E-14 0.352E-14   0.694E-16 0.729E-16 0.118E-15   -.106E-09 -.106E-09 -.106E-09
   0.212E-06 0.212E-06 0.212E-06   -.214E-14 -.407E-14 -.341E-14   -.347E-16 -.781E-16 -.130E-15   0.106E-09 0.106E-09 0.106E-09
 -----------------------------------------------------------------------------------------------
   -.401E-13 0.626E-14 0.604E-14   -.101E-15 0.144E-15 0.110E-15   0.347E-16 -.520E-17 -.121E-16   0.145E-14 -.157E-13 0.152E-13
 
 
 POSITION                                       TOTAL-FORCE (eV/Angst)
 -----------------------------------------------------------------------------------
      0.00000      0.00000      0.00000         0.000000      0.000000      0.000000
      1.40825      1.40825      1.40825        -0.000000     -0.000000     -0.000000
 -----------------------------------------------------------------------------------
    total drift:                               -0.000000     -0.000000      0.000000


--------------------------------------------------------------------------------------------------------



  FREE ENERGIE OF THE ION-ELECTRON SYSTEM (eV)
  ---------------------------------------------------
  free  energy   TOTEN  =        -3.85923194 eV

  energy  without entropy=       -3.85923194  energy(sigma->0) =       -3.85923194
 


--------------------------------------------------------------------------------------------------------


    POTLOK:  cpu time    0.0447: real time    0.0447


--------------------------------------------------------------------------------------------------------


     LOOP+:  cpu time   13.5288: real time   13.5604
    4ORBIT:  cpu time    0.0000: real time    0.0000

 total amount of memory used by VASP MPI-rank0    95637. kBytes
=======================================================================

   base      :      30000. kBytes
   nonl-proj :       3411. kBytes
   fftplans  :       1049. kBytes
   grid      :       2064. kBytes
   one-center:         16. kBytes
   wavefun   :      59097. kBytes
 
  
  
 General timing and accounting informations for this job:
 ========================================================
  
                  Total CPU time used (sec):       16.624
                            User time (sec):       16.294
                          System time (sec):        0.330
                         Elapsed time (sec):       17.110
  
                   Maximum memory used (kb):      233844.
                   Average memory used (kb):           0.
  
                          Minor page faults:        34679
                          Major page faults:            0
                 Voluntary context switches:         1622
