 running on   54 total cores
 distrk:  each k-point on    9 cores,    6 groups
 distr:  one band on    3 cores,    3 groups
 using from now: INCAR     
 vasp.5.4.4.18Apr17-6-g9f103f2a35 (build Sep 10 2021 22:26:18) complex          
  
 POSCAR found type information on POSCAR  Ge
 POSCAR found :  1 types and       2 ions
 scaLAPACK will be used

 ----------------------------------------------------------------------------- 
|                                                                             |
|           W    W    AA    RRRRR   N    N  II  N    N   GGGG   !!!           |
|           W    W   A  A   R    R  NN   N  II  NN   N  G    G  !!!           |
|           W    W  A    A  R    R  N N  N  II  N N  N  G       !!!           |
|           W WW W  AAAAAA  RRRRR   N  N N  II  N  N N  G  GGG   !            |
|           WW  WW  A    A  R   R   N   NN  II  N   NN  G    G                |
|           W    W  A    A  R    R  N    N  II  N    N   GGGG   !!!           |
|                                                                             |
|      For optimal performance we recommend to set                            |
|        NCORE= 4 - approx SQRT( number of cores)                             |
|      NCORE specifies how many cores store one orbital (NPAR=cpu/NCORE).     |
|      This setting can  greatly improve the performance of VASP for DFT.     |
|      The default,   NCORE=1            might be grossly inefficient         |
|      on modern multi-core architectures or massively parallel machines.     |
|      Do your own testing !!!!                                               |
|      Unfortunately you need to use the default for GW and RPA calculations. |
|      (for HF NCORE is supported but not extensively tested yet)             |
|                                                                             |
 ----------------------------------------------------------------------------- 


 ----------------------------------------------------------------------------- 
|                                                                             |
|           W    W    AA    RRRRR   N    N  II  N    N   GGGG   !!!           |
|           W    W   A  A   R    R  NN   N  II  NN   N  G    G  !!!           |
|           W    W  A    A  R    R  N N  N  II  N N  N  G       !!!           |
|           W WW W  AAAAAA  RRRRR   N  N N  II  N  N N  G  GGG   !            |
|           WW  WW  A    A  R   R   N   NN  II  N   NN  G    G                |
|           W    W  A    A  R    R  N    N  II  N    N   GGGG   !!!           |
|                                                                             |
|      You have enabled k-point parallelism (KPAR>1).                         |
|      This developmental code was originally  written by Paul Kent at ORNL,  |
|      and carefully double checked in Vienna.                                |
|      GW as well as linear response parallelism added by Martijn Marsman     |
|      and Georg Kresse.                                                      |
|      Carefully verify results versus KPAR=1.                                |
|      Report problems to Paul Kent and Vienna.                               |
|                                                                             |
 ----------------------------------------------------------------------------- 

 LDA part: xc-table for Pade appr. of Perdew
 found WAVECAR, reading the header
  number of k-points has changed, file:    16 present:   100
  trying to continue reading WAVECAR, but it might fail
 WARNING: stress and forces are not correct
 POSCAR, INCAR and KPOINTS ok, starting setup
 FFT: planning ...
 reading WAVECAR
 the WAVECAR file was read successfully
 reading imaginary part of occupancies ...
 charge-density read from file: unknown                                 
 reading imaginary part of occupancies ...
 magnetization density read from file 1
 entering main loop
       N       E                     dE             d eps       ncg     rms          ort
 gam= 0.000 g(H,U,f)=  0.276E+01 0.377E+02 0.194E-09 ort(H,U,f) = 0.000E+00 0.000E+00 0.000E+00
SDA:   1     0.538585376102E+02    0.53859E+02   -0.16190E+02  5400   0.405E+02 0.000E+00
 gam= 0.382 g(H,U,f)=  0.108E+01 0.160E+02 0.160E-11 ort(H,U,f) = 0.161E+01 0.192E+02 0.192E-11
DMP:   2     0.429517716148E+02   -0.10907E+02   -0.10026E+02  5400   0.171E+02 0.208E+02
 gam= 0.382 g(H,U,f)=  0.243E+00 0.175E+02 0.120E+00 ort(H,U,f) = 0.705E+00 0.332E+02 0.237E+00
DMP:   3     0.319687313972E+02   -0.10983E+02   -0.12366E+02  5400   0.179E+02 0.342E+02
 gam= 0.382 g(H,U,f)=  0.341E-01 0.134E+02 0.280E+00 ort(H,U,f) = 0.671E-01 0.320E+02 0.707E+00
DMP:   4     0.173922877306E+02   -0.14576E+02   -0.10491E+02  5400   0.137E+02 0.328E+02
 gam= 0.382 g(H,U,f)=  0.262E-01 0.782E+01 0.144E+01 ort(H,U,f) =-0.202E-01 0.215E+02 0.396E+01
DMP:   5     0.812585297976E+01   -0.92664E+01   -0.75978E+01  5400   0.929E+01 0.254E+02
 gam= 0.382 g(H,U,f)=  0.217E-01 0.336E+01 0.608E+00 ort(H,U,f) = 0.950E-02 0.103E+02 0.185E+01
DMP:   6     0.138007294329E+01   -0.67458E+01   -0.34470E+01  5400   0.399E+01 0.121E+02
 gam= 0.382 g(H,U,f)=  0.740E-02 0.154E+01 0.205E+00 ort(H,U,f) = 0.124E-01 0.510E+01 0.668E+00
DMP:   7    -0.145462294526E+01   -0.28347E+01   -0.15860E+01  5400   0.176E+01 0.579E+01
 gam= 0.382 g(H,U,f)=  0.149E-02 0.750E+00 0.649E-02 ort(H,U,f) = 0.284E-02 0.266E+01 0.224E-01
DMP:   8    -0.278524073424E+01   -0.13306E+01   -0.71304E+00  5400   0.758E+00 0.268E+01
 gam= 0.382 g(H,U,f)=  0.685E-03 0.335E+00 0.373E-05 ort(H,U,f) =-0.432E-03 0.126E+01 0.137E-04
DMP:   9    -0.339548230330E+01   -0.61024E+00   -0.32744E+00  5400   0.336E+00 0.126E+01
 gam= 0.382 g(H,U,f)=  0.485E-03 0.140E+00 0.105E-08 ort(H,U,f) =-0.758E-04 0.560E+00 0.411E-08
DMP:  10    -0.367330721484E+01   -0.27782E+00   -0.14184E+00  5400   0.141E+00 0.560E+00
 gam= 0.382 g(H,U,f)=  0.215E-03 0.535E-01 0.902E-12 ort(H,U,f) = 0.192E-03 0.227E+00 0.371E-11
DMP:  11    -0.379045688963E+01   -0.11715E+00   -0.56222E-01  5400   0.537E-01 0.227E+00
 gam= 0.382 g(H,U,f)=  0.635E-04 0.187E-01 0.344E-12 ort(H,U,f) = 0.110E-03 0.844E-01 0.145E-11
DMP:  12    -0.383566764518E+01   -0.45211E-01   -0.20414E-01  5400   0.188E-01 0.845E-01
 gam= 0.382 g(H,U,f)=  0.180E-04 0.601E-02 0.525E-14 ort(H,U,f) = 0.268E-04 0.290E-01 0.252E-13
DMP:  13    -0.385171601947E+01   -0.16048E-01   -0.68492E-02  5400   0.603E-02 0.290E-01
 gam= 0.382 g(H,U,f)=  0.795E-05 0.178E-02 0.938E-14 ort(H,U,f) = 0.455E-05 0.931E-02 0.503E-13
DMP:  14    -0.385700543325E+01   -0.52894E-02   -0.21394E-02  5400   0.179E-02 0.931E-02
 gam= 0.382 g(H,U,f)=  0.391E-05 0.483E-03 0.559E-15 ort(H,U,f) = 0.258E-05 0.277E-02 0.319E-14
DMP:  15    -0.385863019655E+01   -0.16248E-02   -0.61899E-03  5400   0.487E-03 0.278E-02
 gam= 0.382 g(H,U,f)=  0.152E-05 0.116E-03 0.417E-16 ort(H,U,f) = 0.170E-05 0.753E-03 0.270E-15
DMP:  16    -0.385909049242E+01   -0.46030E-03   -0.16208E-03  5400   0.117E-03 0.754E-03
 gam= 0.382 g(H,U,f)=  0.490E-06 0.226E-04 0.139E-15 ort(H,U,f) = 0.634E-06 0.178E-03 0.618E-15
DMP:  17    -0.385920719192E+01   -0.11670E-03   -0.36488E-04  5400   0.231E-04 0.178E-03
 gam= 0.382 g(H,U,f)=  0.172E-06 0.298E-05 0.351E-18 ort(H,U,f) = 0.143E-06 0.324E-04 0.381E-17
DMP:  18    -0.385923194037E+01   -0.24748E-04   -0.62270E-05  5400   0.315E-05 0.325E-04
 final diagonalization
   1 F= -.38592319E+01 E0= -.38592319E+01  d E =-.159897E-11  mag=     0.0000
