 running on   56 total cores
 distrk:  each k-point on   56 cores,    1 groups
 distr:  one band on    1 cores,   56 groups
 using from now: INCAR     
 vasp.5.4.4.18Apr17-6-g9f103f2a35 (build Nov 08 2017 12:56:59) complex          
  
 POSCAR found type information on POSCAR  Ge
 POSCAR found :  1 types and       2 ions
 scaLAPACK will be used

 ----------------------------------------------------------------------------- 
|                                                                             |
|           W    W    AA    RRRRR   N    N  II  N    N   GGGG   !!!           |
|           W    W   A  A   R    R  NN   N  II  NN   N  G    G  !!!           |
|           W    W  A    A  R    R  N N  N  II  N N  N  G       !!!           |
|           W WW W  AAAAAA  RRRRR   N  N N  II  N  N N  G  GGG   !            |
|           WW  WW  A    A  R   R   N   NN  II  N   NN  G    G                |
|           W    W  A    A  R    R  N    N  II  N    N   GGGG   !!!           |
|                                                                             |
|      For optimal performance we recommend to set                            |
|        NCORE= 4 - approx SQRT( number of cores)                             |
|      NCORE specifies how many cores store one orbital (NPAR=cpu/NCORE).     |
|      This setting can  greatly improve the performance of VASP for DFT.     |
|      The default,   NCORE=1            might be grossly inefficient         |
|      on modern multi-core architectures or massively parallel machines.     |
|      Do your own testing !!!!                                               |
|      Unfortunately you need to use the default for GW and RPA calculations. |
|      (for HF NCORE is supported but not extensively tested yet)             |
|                                                                             |
 ----------------------------------------------------------------------------- 

 LDA part: xc-table for Pade appr. of Perdew
 found WAVECAR, reading the header
  number of k-points has changed, file:    16 present:   100
  trying to continue reading WAVECAR, but it might fail
 WARNING: stress and forces are not correct
 POSCAR, INCAR and KPOINTS ok, starting setup
 FFT: planning ...
 reading WAVECAR
 the WAVECAR file was read successfully
 reading imaginary part of occupancies ...
 charge-density read from file: unknown                                 
 entering main loop
       N       E                     dE             d eps       ncg     rms          ort
 gam= 0.000 g(H,U,f)=  0.261E+01 0.380E+02 0.657E-02 ort(H,U,f) = 0.000E+00 0.000E+00 0.000E+00
SDA:   1     0.545507309489E+02    0.54551E+02   -0.16227E+02  5600   0.406E+02 0.000E+00
 gam= 0.382 g(H,U,f)=  0.105E+01 0.157E+02 0.850E-09 ort(H,U,f) = 0.154E+01 0.189E+02 0.697E-09
DMP:   2     0.438753599263E+02   -0.10675E+02   -0.98215E+01  5600   0.168E+02 0.204E+02
 gam= 0.382 g(H,U,f)=  0.235E+00 0.174E+02 0.330E+00 ort(H,U,f) = 0.689E+00 0.331E+02 0.654E+00
DMP:   3     0.330422841885E+02   -0.10833E+02   -0.12446E+02  5600   0.180E+02 0.344E+02
 gam= 0.382 g(H,U,f)=  0.317E-01 0.134E+02-0.453E-01 ort(H,U,f) = 0.641E-01 0.321E+02-0.941E-01
DMP:   4     0.184583174084E+02   -0.14584E+02   -0.10270E+02  5600   0.134E+02 0.321E+02
 gam= 0.382 g(H,U,f)=  0.240E-01 0.783E+01 0.190E+01 ort(H,U,f) =-0.192E-01 0.215E+02 0.523E+01
DMP:   5     0.919921907765E+01   -0.92591E+01   -0.79798E+01  5600   0.975E+01 0.267E+02
 gam= 0.382 g(H,U,f)=  0.192E-01 0.330E+01 0.699E+00 ort(H,U,f) = 0.808E-02 0.101E+02 0.212E+01
DMP:   6     0.246527966913E+01   -0.67339E+01   -0.34684E+01  5600   0.402E+01 0.122E+02
 gam= 0.382 g(H,U,f)=  0.654E-02 0.148E+01 0.203E+00 ort(H,U,f) = 0.108E-01 0.489E+01 0.668E+00
DMP:   7    -0.336667113051E+00   -0.28019E+01   -0.15247E+01  5600   0.169E+01 0.556E+01
 gam= 0.382 g(H,U,f)=  0.134E-02 0.735E+00 0.315E-01 ort(H,U,f) = 0.263E-02 0.261E+01 0.109E+00
DMP:   8    -0.165949350587E+01   -0.13228E+01   -0.72247E+00  5600   0.768E+00 0.272E+01
 gam= 0.382 g(H,U,f)=  0.592E-03 0.334E+00-0.258E-03 ort(H,U,f) =-0.345E-03 0.126E+01-0.955E-03
DMP:   9    -0.227153094430E+01   -0.61204E+00   -0.32626E+00  5600   0.335E+00 0.126E+01
 gam= 0.382 g(H,U,f)=  0.425E-03 0.141E+00-0.217E-04 ort(H,U,f) =-0.831E-04 0.563E+00-0.879E-04
DMP:  10    -0.254931671522E+01   -0.27779E+00   -0.14242E+00  5600   0.141E+00 0.563E+00
 gam= 0.382 g(H,U,f)=  0.195E-03 0.543E-01-0.162E-04 ort(H,U,f) = 0.166E-03 0.231E+00-0.697E-04
DMP:  11    -0.266746014071E+01   -0.11814E+00   -0.57090E-01  5600   0.545E-01 0.231E+00
 gam= 0.382 g(H,U,f)=  0.589E-04 0.193E-01-0.797E-04 ort(H,U,f) = 0.102E-03 0.872E-01-0.373E-03
DMP:  12    -0.271340896331E+01   -0.45949E-01   -0.20998E-01  5600   0.193E-01 0.869E-01
 gam= 0.382 g(H,U,f)=  0.161E-04 0.630E-02 0.378E-04 ort(H,U,f) = 0.261E-04 0.304E-01 0.184E-03
DMP:  13    -0.273011529585E+01   -0.16706E-01   -0.72185E-02  5600   0.635E-02 0.306E-01
 gam= 0.382 g(H,U,f)=  0.685E-05 0.188E-02 0.374E-05 ort(H,U,f) = 0.403E-05 0.983E-02 0.194E-04
DMP:  14    -0.273584104515E+01   -0.57257E-02   -0.22626E-02  5600   0.189E-02 0.985E-02
 gam= 0.382 g(H,U,f)=  0.347E-05 0.510E-03 0.329E-05 ort(H,U,f) = 0.209E-05 0.293E-02 0.186E-04
DMP:  15    -0.273756470372E+01   -0.17237E-02   -0.65788E-03  5600   0.517E-03 0.295E-02
 gam= 0.382 g(H,U,f)=  0.139E-05 0.121E-03-0.285E-07 ort(H,U,f) = 0.152E-05 0.791E-03-0.275E-06
DMP:  16    -0.273789164110E+01   -0.32694E-03   -0.17019E-03  5600   0.123E-03 0.793E-03
 gam= 0.382 g(H,U,f)=  0.446E-06 0.237E-04 0.485E-08 ort(H,U,f) = 0.607E-06 0.187E-03-0.409E-07
DMP:  17    -0.273801414789E+01   -0.12251E-03   -0.38245E-04  5600   0.241E-04 0.187E-03
 gam= 0.382 g(H,U,f)=  0.151E-06 0.310E-05 0.216E-07 ort(H,U,f) = 0.141E-06 0.340E-04 0.224E-06
DMP:  18    -0.273820394515E+01   -0.18980E-03   -0.65571E-05  5600   0.327E-05 0.343E-04
 gam= 0.382 g(H,U,f)=  0.640E-07 0.136E-06 0.291E-08 ort(H,U,f) = 0.310E-07 0.250E-05 0.115E-07
DMP:  19    -0.273804383391E+01    0.16011E-03   -0.46971E-06  5600   0.203E-06 0.254E-05
 gam= 0.382 g(H,U,f)=  0.278E-07 0.157E-06 0.904E-09 ort(H,U,f) = 0.170E-07-0.121E-05 0.521E-08
DMP:  20    -0.273804383212E+01    0.17926E-08    0.10650E-06  5600   0.186E-06-0.118E-05
 final diagonalization
   1 F= -.27380438E+01 E0= -.27382418E+01  d E =0.594047E-03
