<?xml version="1.0" encoding="ISO-8859-1"?>
<modeling>
 <generator>
  <i name="program" type="string">vasp </i>
  <i name="version" type="string">5.4.4.18Apr17-6-g9f103f2a35  </i>
  <i name="subversion" type="string">(build Nov 08 2017 12:56:59) complex            parallel </i>
  <i name="platform" type="string">LinuxIFC </i>
  <i name="date" type="string">2020 06 23 </i>
  <i name="time" type="string">11:37:10 </i>
 </generator>
 <incar>
  <i type="string" name="PREC">n</i>
  <i type="string" name="ALGO"> D</i>
  <i type="int" name="ICHARG">    11</i>
  <i name="ENCUT">    450.00000000</i>
  <i name="SIGMA">      0.05000000</i>
  <i type="int" name="LMAXMIX">     2</i>
  <i type="logical" name="LWAVE"> F  </i>
  <i type="logical" name="LCHARG"> F  </i>
  <v type="int" name="KPOINT_BSE">    -1     0     0     0</v>
  <i type="string" name="GGA"> PE</i>
  <i type="logical" name="LDAU"> T  </i>
  <v type="int" name="LDAUL">     1</v>
  <v name="LDAUU">     -1.35900000</v>
  <v name="LDAUJ">      0.00000000</v>
 </incar>
 <structure name="primitive_cell" >
  <crystal>
   <varray name="basis" >
    <v>       0.00000000       2.81650000       2.81650000 </v>
    <v>       2.81650000       0.00000000       2.81650000 </v>
    <v>       2.81650000       2.81650000       0.00000000 </v>
   </varray>
   <i name="volume">     44.68474278 </i>
   <varray name="rec_basis" >
    <v>      -0.17752530       0.17752530       0.17752530 </v>
    <v>       0.17752530      -0.17752530       0.17752530 </v>
    <v>       0.17752530       0.17752530      -0.17752530 </v>
   </varray>
  </crystal>
  <varray name="positions" >
   <v>       0.00000000       0.00000000       0.00000000 </v>
   <v>       0.25000000       0.25000000       0.25000000 </v>
  </varray>
 </structure>
 <varray name="primitive_index" >
  <v type="int" >        1 </v>
  <v type="int" >        2 </v>
 </varray>
 <kpoints>
  <generation param="listgenerated">
   <i name="divisions" type="int">      50 </i>
   <v>       0.50000000       0.50000000       0.50000000 </v>
   <v>       0.00000000       0.00000000       0.00000000 </v>
   <v>       0.50000000       0.00000000       0.50000000 </v>
  </generation>
  <varray name="kpointlist" >
   <v>       0.50000000       0.50000000       0.50000000 </v>
   <v>       0.48979592       0.48979592       0.48979592 </v>
   <v>       0.47959184       0.47959184       0.47959184 </v>
   <v>       0.46938776       0.46938776       0.46938776 </v>
   <v>       0.45918367       0.45918367       0.45918367 </v>
   <v>       0.44897959       0.44897959       0.44897959 </v>
   <v>       0.43877551       0.43877551       0.43877551 </v>
   <v>       0.42857143       0.42857143       0.42857143 </v>
   <v>       0.41836735       0.41836735       0.41836735 </v>
   <v>       0.40816327       0.40816327       0.40816327 </v>
   <v>       0.39795918       0.39795918       0.39795918 </v>
   <v>       0.38775510       0.38775510       0.38775510 </v>
   <v>       0.37755102       0.37755102       0.37755102 </v>
   <v>       0.36734694       0.36734694       0.36734694 </v>
   <v>       0.35714286       0.35714286       0.35714286 </v>
   <v>       0.34693878       0.34693878       0.34693878 </v>
   <v>       0.33673469       0.33673469       0.33673469 </v>
   <v>       0.32653061       0.32653061       0.32653061 </v>
   <v>       0.31632653       0.31632653       0.31632653 </v>
   <v>       0.30612245       0.30612245       0.30612245 </v>
   <v>       0.29591837       0.29591837       0.29591837 </v>
   <v>       0.28571429       0.28571429       0.28571429 </v>
   <v>       0.27551020       0.27551020       0.27551020 </v>
   <v>       0.26530612       0.26530612       0.26530612 </v>
   <v>       0.25510204       0.25510204       0.25510204 </v>
   <v>       0.24489796       0.24489796       0.24489796 </v>
   <v>       0.23469388       0.23469388       0.23469388 </v>
   <v>       0.22448980       0.22448980       0.22448980 </v>
   <v>       0.21428571       0.21428571       0.21428571 </v>
   <v>       0.20408163       0.20408163       0.20408163 </v>
   <v>       0.19387755       0.19387755       0.19387755 </v>
   <v>       0.18367347       0.18367347       0.18367347 </v>
   <v>       0.17346939       0.17346939       0.17346939 </v>
   <v>       0.16326531       0.16326531       0.16326531 </v>
   <v>       0.15306122       0.15306122       0.15306122 </v>
   <v>       0.14285714       0.14285714       0.14285714 </v>
   <v>       0.13265306       0.13265306       0.13265306 </v>
   <v>       0.12244898       0.12244898       0.12244898 </v>
   <v>       0.11224490       0.11224490       0.11224490 </v>
   <v>       0.10204082       0.10204082       0.10204082 </v>
   <v>       0.09183673       0.09183673       0.09183673 </v>
   <v>       0.08163265       0.08163265       0.08163265 </v>
   <v>       0.07142857       0.07142857       0.07142857 </v>
   <v>       0.06122449       0.06122449       0.06122449 </v>
   <v>       0.05102041       0.05102041       0.05102041 </v>
   <v>       0.04081633       0.04081633       0.04081633 </v>
   <v>       0.03061224       0.03061224       0.03061224 </v>
   <v>       0.02040816       0.02040816       0.02040816 </v>
   <v>       0.01020408       0.01020408       0.01020408 </v>
   <v>       0.00000000       0.00000000       0.00000000 </v>
   <v>       0.00000000       0.00000000       0.00000000 </v>
   <v>       0.01020408       0.00000000       0.01020408 </v>
   <v>       0.02040816       0.00000000       0.02040816 </v>
   <v>       0.03061224       0.00000000       0.03061224 </v>
   <v>       0.04081633       0.00000000       0.04081633 </v>
   <v>       0.05102041       0.00000000       0.05102041 </v>
   <v>       0.06122449       0.00000000       0.06122449 </v>
   <v>       0.07142857       0.00000000       0.07142857 </v>
   <v>       0.08163265       0.00000000       0.08163265 </v>
   <v>       0.09183673       0.00000000       0.09183673 </v>
   <v>       0.10204082       0.00000000       0.10204082 </v>
   <v>       0.11224490       0.00000000       0.11224490 </v>
   <v>       0.12244898       0.00000000       0.12244898 </v>
   <v>       0.13265306       0.00000000       0.13265306 </v>
   <v>       0.14285714       0.00000000       0.14285714 </v>
   <v>       0.15306122       0.00000000       0.15306122 </v>
   <v>       0.16326531       0.00000000       0.16326531 </v>
   <v>       0.17346939       0.00000000       0.17346939 </v>
   <v>       0.18367347       0.00000000       0.18367347 </v>
   <v>       0.19387755       0.00000000       0.19387755 </v>
   <v>       0.20408163       0.00000000       0.20408163 </v>
   <v>       0.21428571       0.00000000       0.21428571 </v>
   <v>       0.22448980       0.00000000       0.22448980 </v>
   <v>       0.23469388       0.00000000       0.23469388 </v>
   <v>       0.24489796       0.00000000       0.24489796 </v>
   <v>       0.25510204       0.00000000       0.25510204 </v>
   <v>       0.26530612       0.00000000       0.26530612 </v>
   <v>       0.27551020       0.00000000       0.27551020 </v>
   <v>       0.28571429       0.00000000       0.28571429 </v>
   <v>       0.29591837       0.00000000       0.29591837 </v>
   <v>       0.30612245       0.00000000       0.30612245 </v>
   <v>       0.31632653       0.00000000       0.31632653 </v>
   <v>       0.32653061       0.00000000       0.32653061 </v>
   <v>       0.33673469       0.00000000       0.33673469 </v>
   <v>       0.34693878       0.00000000       0.34693878 </v>
   <v>       0.35714286       0.00000000       0.35714286 </v>
   <v>       0.36734694       0.00000000       0.36734694 </v>
   <v>       0.37755102       0.00000000       0.37755102 </v>
   <v>       0.38775510       0.00000000       0.38775510 </v>
   <v>       0.39795918       0.00000000       0.39795918 </v>
   <v>       0.40816327       0.00000000       0.40816327 </v>
   <v>       0.41836735       0.00000000       0.41836735 </v>
   <v>       0.42857143       0.00000000       0.42857143 </v>
   <v>       0.43877551       0.00000000       0.43877551 </v>
   <v>       0.44897959       0.00000000       0.44897959 </v>
   <v>       0.45918367       0.00000000       0.45918367 </v>
   <v>       0.46938776       0.00000000       0.46938776 </v>
   <v>       0.47959184       0.00000000       0.47959184 </v>
   <v>       0.48979592       0.00000000       0.48979592 </v>
   <v>       0.50000000       0.00000000       0.50000000 </v>
  </varray>
  <varray name="weights" >
   <v>       0.01000000 </v>
   <v>       0.01000000 </v>
   <v>       0.01000000 </v>
   <v>       0.01000000 </v>
   <v>       0.01000000 </v>
   <v>       0.01000000 </v>
   <v>       0.01000000 </v>
   <v>       0.01000000 </v>
   <v>       0.01000000 </v>
   <v>       0.01000000 </v>
   <v>       0.01000000 </v>
   <v>       0.01000000 </v>
   <v>       0.01000000 </v>
   <v>       0.01000000 </v>
   <v>       0.01000000 </v>
   <v>       0.01000000 </v>
   <v>       0.01000000 </v>
   <v>       0.01000000 </v>
   <v>       0.01000000 </v>
   <v>       0.01000000 </v>
   <v>       0.01000000 </v>
   <v>       0.01000000 </v>
   <v>       0.01000000 </v>
   <v>       0.01000000 </v>
   <v>       0.01000000 </v>
   <v>       0.01000000 </v>
   <v>       0.01000000 </v>
   <v>       0.01000000 </v>
   <v>       0.01000000 </v>
   <v>       0.01000000 </v>
   <v>       0.01000000 </v>
   <v>       0.01000000 </v>
   <v>       0.01000000 </v>
   <v>       0.01000000 </v>
   <v>       0.01000000 </v>
   <v>       0.01000000 </v>
   <v>       0.01000000 </v>
   <v>       0.01000000 </v>
   <v>       0.01000000 </v>
   <v>       0.01000000 </v>
   <v>       0.01000000 </v>
   <v>       0.01000000 </v>
   <v>       0.01000000 </v>
   <v>       0.01000000 </v>
   <v>       0.01000000 </v>
   <v>       0.01000000 </v>
   <v>       0.01000000 </v>
   <v>       0.01000000 </v>
   <v>       0.01000000 </v>
   <v>       0.01000000 </v>
   <v>       0.01000000 </v>
   <v>       0.01000000 </v>
   <v>       0.01000000 </v>
   <v>       0.01000000 </v>
   <v>       0.01000000 </v>
   <v>       0.01000000 </v>
   <v>       0.01000000 </v>
   <v>       0.01000000 </v>
   <v>       0.01000000 </v>
   <v>       0.01000000 </v>
   <v>       0.01000000 </v>
   <v>       0.01000000 </v>
   <v>       0.01000000 </v>
   <v>       0.01000000 </v>
   <v>       0.01000000 </v>
   <v>       0.01000000 </v>
   <v>       0.01000000 </v>
   <v>       0.01000000 </v>
   <v>       0.01000000 </v>
   <v>       0.01000000 </v>
   <v>       0.01000000 </v>
   <v>       0.01000000 </v>
   <v>       0.01000000 </v>
   <v>       0.01000000 </v>
   <v>       0.01000000 </v>
   <v>       0.01000000 </v>
   <v>       0.01000000 </v>
   <v>       0.01000000 </v>
   <v>       0.01000000 </v>
   <v>       0.01000000 </v>
   <v>       0.01000000 </v>
   <v>       0.01000000 </v>
   <v>       0.01000000 </v>
   <v>       0.01000000 </v>
   <v>       0.01000000 </v>
   <v>       0.01000000 </v>
   <v>       0.01000000 </v>
   <v>       0.01000000 </v>
   <v>       0.01000000 </v>
   <v>       0.01000000 </v>
   <v>       0.01000000 </v>
   <v>       0.01000000 </v>
   <v>       0.01000000 </v>
   <v>       0.01000000 </v>
   <v>       0.01000000 </v>
   <v>       0.01000000 </v>
   <v>       0.01000000 </v>
   <v>       0.01000000 </v>
   <v>       0.01000000 </v>
   <v>       0.01000000 </v>
  </varray>
 </kpoints>
 <parameters>
  <separator name="general" >
   <i type="string" name="SYSTEM">unknown system</i>
   <i type="logical" name="LCOMPAT"> F  </i>
  </separator>
  <separator name="electronic" >
   <i type="string" name="PREC">n</i>
   <i name="ENMAX">    450.00000000</i>
   <i name="ENAUG">    385.84300000</i>
   <i name="EDIFF">      0.00010000</i>
   <i type="int" name="IALGO">    53</i>
   <i type="int" name="IWAVPR">    10</i>
   <i type="int" name="NBANDS">    56</i>
   <i name="NELECT">      8.00000000</i>
   <i type="int" name="TURBO">     0</i>
   <i type="int" name="IRESTART">     0</i>
   <i type="int" name="NREBOOT">     0</i>
   <i type="int" name="NMIN">     0</i>
   <i name="EREF">      0.00000000</i>
   <separator name="electronic smearing" >
    <i type="int" name="ISMEAR">     1</i>
    <i name="SIGMA">      0.05000000</i>
    <i name="KSPACING">      0.50000000</i>
    <i type="logical" name="KGAMMA"> T  </i>
   </separator>
   <separator name="electronic projectors" >
    <i type="logical" name="LREAL"> F  </i>
    <v name="ROPT">      0.00000000</v>
    <i type="int" name="LMAXPAW">  -100</i>
    <i type="int" name="LMAXMIX">     2</i>
    <i type="logical" name="NLSPLINE"> F  </i>
   </separator>
   <separator name="electronic startup" >
    <i type="int" name="ISTART">     1</i>
    <i type="int" name="ICHARG">    11</i>
    <i type="int" name="INIWAV">     1</i>
   </separator>
   <separator name="electronic spin" >
    <i type="int" name="ISPIN">     1</i>
    <i type="logical" name="LNONCOLLINEAR"> F  </i>
    <v name="MAGMOM">      1.00000000      1.00000000</v>
    <i name="NUPDOWN">     -1.00000000</i>
    <i type="logical" name="LSORBIT"> F  </i>
    <v name="SAXIS">      0.00000000      0.00000000      1.00000000</v>
    <i type="logical" name="LSPIRAL"> F  </i>
    <v name="QSPIRAL">      0.00000000      0.00000000      0.00000000</v>
    <i type="logical" name="LZEROZ"> F  </i>
   </separator>
   <separator name="electronic exchange-correlation" >
    <i type="logical" name="LASPH"> F  </i>
    <i type="logical" name="LMETAGGA"> F  </i>
   </separator>
   <separator name="electronic convergence" >
    <i type="int" name="NELM">    60</i>
    <i type="int" name="NELMDL">     0</i>
    <i type="int" name="NELMIN">     2</i>
    <i name="ENINI">    450.00000000</i>
    <separator name="electronic convergence detail" >
     <i type="logical" name="LDIAG"> T  </i>
     <i type="logical" name="LSUBROT"> F  </i>
     <i name="WEIMIN">      0.00000000</i>
     <i name="EBREAK">      0.00000045</i>
     <i name="DEPER">      0.30000000</i>
     <i type="int" name="NRMM">     4</i>
     <i name="TIME">      0.40000000</i>
    </separator>
   </separator>
   <separator name="electronic mixer" >
    <i name="AMIX">      0.40000000</i>
    <i name="BMIX">      1.00000000</i>
    <i name="AMIN">      0.10000000</i>
    <i name="AMIX_MAG">      1.60000000</i>
    <i name="BMIX_MAG">      1.00000000</i>
    <separator name="electronic mixer details" >
     <i type="int" name="IMIX">     4</i>
     <i type="logical" name="MIXFIRST"> F  </i>
     <i type="int" name="MAXMIX">   -45</i>
     <i name="WC">    100.00000000</i>
     <i type="int" name="INIMIX">     1</i>
     <i type="int" name="MIXPRE">     1</i>
     <i type="int" name="MREMOVE">     5</i>
    </separator>
   </separator>
   <separator name="electronic dipolcorrection" >
    <i type="logical" name="LDIPOL"> F  </i>
    <i type="logical" name="LMONO"> F  </i>
    <i type="int" name="IDIPOL">     0</i>
    <i name="EPSILON">      1.00000000</i>
    <v name="DIPOL">   -100.00000000   -100.00000000   -100.00000000</v>
    <i name="EFIELD">      0.00000000</i>
   </separator>
  </separator>
  <separator name="grids" >
   <i type="int" name="NGX">    24</i>
   <i type="int" name="NGY">    24</i>
   <i type="int" name="NGZ">    24</i>
   <i type="int" name="NGXF">    48</i>
   <i type="int" name="NGYF">    48</i>
   <i type="int" name="NGZF">    48</i>
   <i type="logical" name="ADDGRID"> F  </i>
  </separator>
  <separator name="ionic" >
   <i type="int" name="NSW">     0</i>
   <i type="int" name="IBRION">    -1</i>
   <i type="int" name="MDALGO">     0</i>
   <i type="int" name="ISIF">     2</i>
   <i name="PSTRESS">      0.00000000</i>
   <i name="EDIFFG">      0.00100000</i>
   <i type="int" name="NFREE">     0</i>
   <i name="POTIM">      0.50000000</i>
   <i name="SMASS">     -3.00000000</i>
   <i name="SCALEE">      1.00000000</i>
  </separator>
  <separator name="ionic md" >
   <i name="TEBEG">      0.00010000</i>
   <i name="TEEND">      0.00010000</i>
   <i type="int" name="NBLOCK">     1</i>
   <i type="int" name="KBLOCK">     1</i>
   <i type="int" name="NPACO">   256</i>
   <i name="APACO">     16.00000000</i>
  </separator>
  <separator name="symmetry" >
   <i type="int" name="ISYM">     2</i>
   <i name="SYMPREC">      0.00001000</i>
  </separator>
  <separator name="dos" >
   <i type="int" name="LORBIT">     0</i>
   <v name="RWIGS">     -1.00000000</v>
   <i type="int" name="NEDOS">   301</i>
   <i name="EMIN">     10.00000000</i>
   <i name="EMAX">    -10.00000000</i>
   <i name="EFERMI">      0.00000000</i>
  </separator>
  <separator name="writing" >
   <i type="int" name="NWRITE">     2</i>
   <i type="logical" name="LWAVE"> F  </i>
   <i type="logical" name="LDOWNSAMPLE"> F  </i>
   <i type="logical" name="LCHARG"> F  </i>
   <i type="logical" name="LPARD"> F  </i>
   <i type="logical" name="LVTOT"> F  </i>
   <i type="logical" name="LVHAR"> F  </i>
   <i type="logical" name="LELF"> F  </i>
   <i type="logical" name="LOPTICS"> F  </i>
   <v name="STM">      0.00000000      0.00000000      0.00000000      0.00000000      0.00000000      0.00000000      0.00000000</v>
  </separator>
  <separator name="performance" >
   <i type="int" name="NPAR">    56</i>
   <i type="int" name="NSIM">     4</i>
   <i type="int" name="NBLK">    -1</i>
   <i type="logical" name="LPLANE"> T  </i>
   <i type="logical" name="LSCALAPACK"> T  </i>
   <i type="logical" name="LSCAAWARE"> T  </i>
   <i type="logical" name="LSCALU"> F  </i>
   <i type="logical" name="LASYNC"> F  </i>
   <i type="logical" name="LORBITALREAL"> F  </i>
  </separator>
  <separator name="miscellaneous" >
   <i type="int" name="IDIOT">     3</i>
   <i type="int" name="ISPECIAL">     0</i>
   <i type="logical" name="LMUSIC"> F  </i>
   <v name="POMASS">     72.61000000</v>
   <v name="DARWINR">      0.00000000</v>
   <v name="DARWINV">      1.00000000</v>
   <i type="logical" name="LCORR"> T  </i>
  </separator>
  <i type="logical" name="GGA_COMPAT"> T  </i>
  <i type="logical" name="LBERRY"> F  </i>
  <i type="int" name="ICORELEVEL">     0</i>
  <i type="logical" name="LDAU"> T  </i>
  <v type="int" name="LDAUTYPE">     2</v>
  <v type="int" name="LDAUL">     1</v>
  <v name="LDAUU">     -1.35900000</v>
  <v name="LDAUJ">      0.00000000</v>
  <i type="int" name="LDAUPRINT">     0</i>
  <i type="int" name="I_CONSTRAINED_M">     0</i>
  <separator name="electronic exchange-correlation" >
   <i type="string" name="GGA">PE</i>
   <i type="int" name="VOSKOWN">     0</i>
   <i type="logical" name="LHFCALC"> F  </i>
   <i type="string" name="PRECFOCK"></i>
   <i type="logical" name="LSYMGRAD"> F  </i>
   <i type="logical" name="LHFONE"> F  </i>
   <i type="logical" name="LRHFCALC"> F  </i>
   <i type="logical" name="LTHOMAS"> F  </i>
   <i type="logical" name="LMODELHF"> F  </i>
   <i name="ENCUT4O">     -1.00000000</i>
   <i type="int" name="EXXOEP">     0</i>
   <i type="int" name="FOURORBIT">     0</i>
   <i name="AEXX">      0.00000000</i>
   <i name="HFALPHA">      0.00000000</i>
   <i name="MCALPHA">      0.00000000</i>
   <i name="ALDAX">      1.00000000</i>
   <i name="AGGAX">      1.00000000</i>
   <i name="ALDAC">      1.00000000</i>
   <i name="AGGAC">      1.00000000</i>
   <i type="int" name="NKREDX">     1</i>
   <i type="int" name="NKREDY">     1</i>
   <i type="int" name="NKREDZ">     1</i>
   <i type="logical" name="SHIFTRED"> F  </i>
   <i type="logical" name="ODDONLY"> F  </i>
   <i type="logical" name="EVENONLY"> F  </i>
   <i type="int" name="LMAXFOCK">     0</i>
   <i type="int" name="NMAXFOCKAE">     0</i>
   <i type="logical" name="LFOCKAEDFT"> F  </i>
   <i name="HFSCREEN">      0.00000000</i>
   <i name="HFSCREENC">      0.00000000</i>
   <i type="int" name="NBANDSGWLOW">     0</i>
  </separator>
  <separator name="vdW DFT" >
   <i type="logical" name="LUSE_VDW"> F  </i>
   <i name="Zab_VDW">     -0.84910000</i>
   <i name="PARAM1">      0.12340000</i>
   <i name="PARAM2">      1.00000000</i>
   <i name="PARAM3">      0.00000000</i>
  </separator>
  <separator name="model GW" >
   <i type="int" name="MODEL_GW">     0</i>
   <i name="MODEL_EPS0">     13.40542284</i>
   <i name="MODEL_ALPHA">      1.00000000</i>
  </separator>
  <separator name="linear response parameters" >
   <i type="logical" name="LEPSILON"> F  </i>
   <i type="logical" name="LRPA"> F  </i>
   <i type="logical" name="LNABLA"> F  </i>
   <i type="logical" name="LVEL"> F  </i>
   <i type="int" name="KINTER">     0</i>
   <i name="CSHIFT">      0.10000000</i>
   <i name="OMEGAMAX">     -1.00000000</i>
   <i name="DEG_THRESHOLD">      0.00200000</i>
   <i name="RTIME">     -0.10000000</i>
   <i name="WPLASMAI">      0.00000000</i>
   <v name="DFIELD">      0.00000000      0.00000000      0.00000000</v>
   <v name="WPLASMA">      0.00000000      0.00000000      0.00000000      0.00000000      0.00000000      0.00000000      0.00000000      0.00000000      0.00000000</v>
  </separator>
  <separator name="orbital magnetization" >
   <i type="logical" name="NUCIND"> F  </i>
   <v name="MAGPOS">      0.00000000      0.00000000      0.00000000</v>
   <i type="logical" name="LNICSALL"> T  </i>
   <i type="logical" name="ORBITALMAG"> F  </i>
   <i type="logical" name="LMAGBLOCH"> F  </i>
   <i type="logical" name="LCHIMAG"> F  </i>
   <i type="logical" name="LGAUGE"> T  </i>
   <i type="int" name="MAGATOM">     0</i>
   <v name="MAGDIPOL">      0.00000000      0.00000000      0.00000000</v>
   <v name="AVECCONST">      0.00000000      0.00000000      0.00000000</v>
  </separator>
  <separator name="response functions" >
   <i type="logical" name="LADDER"> F  </i>
   <i type="logical" name="LRPAFORCE"> F  </i>
   <i type="logical" name="LFXC"> F  </i>
   <i type="logical" name="LHARTREE"> T  </i>
   <i type="int" name="IBSE">     0</i>
   <v type="int" name="KPOINT">    -1     0     0     0</v>
   <i type="logical" name="LTCTE"> F  </i>
   <i type="logical" name="LTETE"> F  </i>
   <i type="logical" name="LTRIPLET"> F  </i>
   <i type="logical" name="LFXCEPS"> F  </i>
   <i type="logical" name="LFXHEG"> F  </i>
   <i type="int" name="NATURALO">     2</i>
   <i type="logical" name="L2ORDER"> F  </i>
   <i type="logical" name="LMP2LT"> F  </i>
   <i type="logical" name="LUSEW"> F  </i>
   <i name="ENCUTGW">     -2.00000000</i>
   <i name="ENCUTGWSOFT">     -2.00000000</i>
   <i name="ENCUTLF">     -1.00000000</i>
   <i type="int" name="LMAXMP2">    -1</i>
   <i name="SCISSOR">      0.00000000</i>
   <i type="int" name="NOMEGA">     0</i>
   <i type="int" name="NOMEGAR">     0</i>
   <i type="int" name="NBANDSGW">    -1</i>
   <i type="int" name="NBANDSO">    -1</i>
   <i type="int" name="NBANDSV">    -1</i>
   <i type="int" name="NELM">     1</i>
   <i type="int" name="NELMHF">     1</i>
   <i type="int" name="DIM">     3</i>
   <i type="int" name="ANTIRES">     0</i>
   <i name="OMEGAMAX">    -30.00000000</i>
   <i name="OMEGAMIN">    -30.00000000</i>
   <i name="OMEGATL">   -200.00000000</i>
   <i type="int" name="OMEGAGRID">   140</i>
   <i name="CSHIFT">     -0.10000000</i>
   <i type="logical" name="SELFENERGY"> F  </i>
   <i type="logical" name="LSPECTRAL"> F  </i>
   <i type="logical" name="LSPECTRALGW"> F  </i>
   <i type="logical" name="LSINGLES"> F  </i>
   <i type="logical" name="LFERMIGW"> F  </i>
   <i type="logical" name="ODDONLYGW"> F  </i>
   <i type="logical" name="EVENONLYGW"> F  </i>
   <i type="int" name="NKREDLFX">     1</i>
   <i type="int" name="NKREDLFY">     1</i>
   <i type="int" name="NKREDLFZ">     1</i>
   <i type="int" name="MAXMEM">  2800</i>
   <i type="int" name="TELESCOPE">     0</i>
   <i type="int" name="TAUPAR">     1</i>
   <i type="int" name="OMEGAPAR">    -1</i>
   <i name="LAMBDA">      1.00000000</i>
  </separator>
  <separator name="External order field" >
   <i name="OFIELD_KAPPA">      0.00000000</i>
   <v name="OFIELD_K">      0.00000000      0.00000000      0.00000000</v>
   <i name="OFIELD_Q6_NEAR">      0.00000000</i>
   <i name="OFIELD_Q6_FAR">      0.00000000</i>
   <i name="OFIELD_A">      0.00000000</i>
  </separator>
 </parameters>
 <atominfo>
  <atoms>       2 </atoms>
  <types>       1 </types>
  <array name="atoms" >
   <dimension dim="1">ion</dimension>
   <field type="string">element</field>
   <field type="int">atomtype</field>
   <set>
    <rc><c>Ge</c><c>   1</c></rc>
    <rc><c>Ge</c><c>   1</c></rc>
   </set>
  </array>
  <array name="atomtypes" >
   <dimension dim="1">type</dimension>
   <field type="int">atomspertype</field>
   <field type="string">element</field>
   <field>mass</field>
   <field>valence</field>
   <field type="string">pseudopotential</field>
   <set>
    <rc><c>   2</c><c>Ge</c><c>     72.61000000</c><c>      4.00000000</c><c>  PAW_PBE Ge 05Jan2001                  </c></rc>
   </set>
  </array>
 </atominfo>
 <structure name="initialpos" >
  <crystal>
   <varray name="basis" >
    <v>       0.00000000       2.81650000       2.81650000 </v>
    <v>       2.81650000       0.00000000       2.81650000 </v>
    <v>       2.81650000       2.81650000       0.00000000 </v>
   </varray>
   <i name="volume">     44.68474278 </i>
   <varray name="rec_basis" >
    <v>      -0.17752530       0.17752530       0.17752530 </v>
    <v>       0.17752530      -0.17752530       0.17752530 </v>
    <v>       0.17752530       0.17752530      -0.17752530 </v>
   </varray>
  </crystal>
  <varray name="positions" >
   <v>       0.00000000       0.00000000       0.00000000 </v>
   <v>       0.25000000       0.25000000       0.25000000 </v>
  </varray>
 </structure>
 <calculation>
  <scstep>
   <time name="total">    1.02    1.04</time>
   <energy>
    <i name="alphaZ">     17.10940282 </i>
    <i name="ewald">   -220.32663596 </i>
    <i name="hartreedc">    -15.72692314 </i>
    <i name="XCdc">    -14.32954626 </i>
    <i name="pawpsdc">    509.64595680 </i>
    <i name="pawaedc">   -481.45250049 </i>
    <i name="eentropy">      0.00005798 </i>
    <i name="bandstr">     49.63943963 </i>
    <i name="atom">    209.99145059 </i>
    <i name="e_fr_energy">     54.55073095 </i>
    <i name="e_wo_entrp">     54.55067297 </i>
    <i name="e_0_energy">     54.55071162 </i>
   </energy>
  </scstep>
  <scstep>
   <time name="total">    0.99    1.00</time>
   <energy>
    <i name="e_fr_energy">     43.87535993 </i>
    <i name="e_wo_entrp">     43.87531665 </i>
    <i name="e_0_energy">     43.87534550 </i>
   </energy>
  </scstep>
  <scstep>
   <time name="total">    0.99    1.01</time>
   <energy>
    <i name="e_fr_energy">     33.04228419 </i>
    <i name="e_wo_entrp">     33.04211355 </i>
    <i name="e_0_energy">     33.04222731 </i>
   </energy>
  </scstep>
  <scstep>
   <time name="total">    0.99    1.00</time>
   <energy>
    <i name="e_fr_energy">     18.45831741 </i>
    <i name="e_wo_entrp">     18.45820517 </i>
    <i name="e_0_energy">     18.45827999 </i>
   </energy>
  </scstep>
  <scstep>
   <time name="total">    0.98    0.99</time>
   <energy>
    <i name="e_fr_energy">      9.19921908 </i>
    <i name="e_wo_entrp">      9.19930271 </i>
    <i name="e_0_energy">      9.19924696 </i>
   </energy>
  </scstep>
  <scstep>
   <time name="total">    0.98    0.99</time>
   <energy>
    <i name="e_fr_energy">      2.46527967 </i>
    <i name="e_wo_entrp">      2.46521451 </i>
    <i name="e_0_energy">      2.46525795 </i>
   </energy>
  </scstep>
  <scstep>
   <time name="total">    1.00    1.01</time>
   <energy>
    <i name="e_fr_energy">     -0.33666711 </i>
    <i name="e_wo_entrp">     -0.33660296 </i>
    <i name="e_0_energy">     -0.33664573 </i>
   </energy>
  </scstep>
  <scstep>
   <time name="total">    0.98    1.00</time>
   <energy>
    <i name="e_fr_energy">     -1.65949351 </i>
    <i name="e_wo_entrp">     -1.65966111 </i>
    <i name="e_0_energy">     -1.65954937 </i>
   </energy>
  </scstep>
  <scstep>
   <time name="total">    0.98    0.99</time>
   <energy>
    <i name="e_fr_energy">     -2.27153094 </i>
    <i name="e_wo_entrp">     -2.27172709 </i>
    <i name="e_0_energy">     -2.27159633 </i>
   </energy>
  </scstep>
  <scstep>
   <time name="total">    0.98    0.99</time>
   <energy>
    <i name="e_fr_energy">     -2.54931672 </i>
    <i name="e_wo_entrp">     -2.54954849 </i>
    <i name="e_0_energy">     -2.54939397 </i>
   </energy>
  </scstep>
  <scstep>
   <time name="total">    0.98    0.99</time>
   <energy>
    <i name="e_fr_energy">     -2.66746014 </i>
    <i name="e_wo_entrp">     -2.66809582 </i>
    <i name="e_0_energy">     -2.66767204 </i>
   </energy>
  </scstep>
  <scstep>
   <time name="total">    1.00    1.01</time>
   <energy>
    <i name="e_fr_energy">     -2.71340896 </i>
    <i name="e_wo_entrp">     -2.71403681 </i>
    <i name="e_0_energy">     -2.71361825 </i>
   </energy>
  </scstep>
  <scstep>
   <time name="total">    0.99    1.00</time>
   <energy>
    <i name="e_fr_energy">     -2.73011530 </i>
    <i name="e_wo_entrp">     -2.73048137 </i>
    <i name="e_0_energy">     -2.73023732 </i>
   </energy>
  </scstep>
  <scstep>
   <time name="total">    0.98    0.99</time>
   <energy>
    <i name="e_fr_energy">     -2.73584105 </i>
    <i name="e_wo_entrp">     -2.73620579 </i>
    <i name="e_0_energy">     -2.73596263 </i>
   </energy>
  </scstep>
  <scstep>
   <time name="total">    0.98    0.99</time>
   <energy>
    <i name="e_fr_energy">     -2.73756470 </i>
    <i name="e_wo_entrp">     -2.73816143 </i>
    <i name="e_0_energy">     -2.73776361 </i>
   </energy>
  </scstep>
  <scstep>
   <time name="total">    0.98    0.99</time>
   <energy>
    <i name="e_fr_energy">     -2.73789164 </i>
    <i name="e_wo_entrp">     -2.73848688 </i>
    <i name="e_0_energy">     -2.73809005 </i>
   </energy>
  </scstep>
  <scstep>
   <time name="total">    1.00    1.01</time>
   <energy>
    <i name="e_fr_energy">     -2.73801415 </i>
    <i name="e_wo_entrp">     -2.73837635 </i>
    <i name="e_0_energy">     -2.73813488 </i>
   </energy>
  </scstep>
  <scstep>
   <time name="total">    0.98    0.99</time>
   <energy>
    <i name="e_fr_energy">     -2.73820395 </i>
    <i name="e_wo_entrp">     -2.73879815 </i>
    <i name="e_0_energy">     -2.73840201 </i>
   </energy>
  </scstep>
  <scstep>
   <time name="total">    0.98    0.99</time>
   <energy>
    <i name="e_fr_energy">     -2.73804383 </i>
    <i name="e_wo_entrp">     -2.73863791 </i>
    <i name="e_0_energy">     -2.73824186 </i>
   </energy>
  </scstep>
  <scstep>
   <time name="total">    1.65    1.67</time>
   <energy>
    <i name="alphaZ">     17.10940282 </i>
    <i name="ewald">   -220.32663596 </i>
    <i name="hartreedc">    -15.72692314 </i>
    <i name="XCdc">    -14.32954626 </i>
    <i name="pawpsdc">    509.64595680 </i>
    <i name="pawaedc">   -481.45250049 </i>
    <i name="eentropy">      0.00059405 </i>
    <i name="bandstr">     -7.64984226 </i>
    <i name="atom">    209.99145059 </i>
    <i name="e_fr_energy">     -2.73804383 </i>
    <i name="e_wo_entrp">     -2.73863788 </i>
    <i name="e_0_energy">     -2.73824185 </i>
   </energy>
  </scstep>
  <structure>
   <crystal>
    <varray name="basis" >
     <v>       0.00000000       2.81650000       2.81650000 </v>
     <v>       2.81650000       0.00000000       2.81650000 </v>
     <v>       2.81650000       2.81650000       0.00000000 </v>
    </varray>
    <i name="volume">     44.68474278 </i>
    <varray name="rec_basis" >
     <v>      -0.17752530       0.17752530       0.17752530 </v>
     <v>       0.17752530      -0.17752530       0.17752530 </v>
     <v>       0.17752530       0.17752530      -0.17752530 </v>
    </varray>
   </crystal>
   <varray name="positions" >
    <v>       0.00000000       0.00000000       0.00000000 </v>
    <v>       0.25000000       0.25000000       0.25000000 </v>
   </varray>
  </structure>
  <varray name="forces" >
   <v>      -0.00000000      -0.00000000      -0.00000000 </v>
   <v>       0.00000000       0.00000000       0.00000000 </v>
  </varray>
  <varray name="stress" >
   <v>     352.97283366      -0.00000000       0.00000000 </v>
   <v>       0.00000000     352.97283366       0.00000000 </v>
   <v>       0.00000000       0.00000000     352.97283366 </v>
  </varray>
  <energy>
   <i name="e_fr_energy">     -2.73804383 </i>
   <i name="e_wo_entrp">     -2.73824185 </i>
   <i name="e_0_energy">      0.00059405 </i>
  </energy>
  <time name="totalsc">   20.99   21.42</time>
  <eigenvalues>
   <array>
    <dimension dim="1">band</dimension>
    <dimension dim="2">kpoint</dimension>
    <dimension dim="3">spin</dimension>
    <field>eigene</field>
    <field>occ</field>
    <set>
     <set comment="spin 1">
      <set comment="kpoint 1">
       <r>   -6.8582    1.0000 </r>
       <r>   -3.8453    1.0000 </r>
       <r>    2.2543    1.0000 </r>
       <r>    2.2543    1.0000 </r>
       <r>    4.0994   -0.0000 </r>
       <r>    7.5159    0.0000 </r>
       <r>    7.5159    0.0000 </r>
       <r>   10.9603    0.0000 </r>
       <r>   14.4013    0.0000 </r>
       <r>   14.9915    0.0000 </r>
       <r>   15.0011    0.0000 </r>
       <r>   15.0011    0.0000 </r>
       <r>   16.0642    0.0000 </r>
       <r>   16.0642    0.0000 </r>
       <r>   22.6339    0.0000 </r>
       <r>   23.8708    0.0000 </r>
       <r>   25.3376    0.0000 </r>
       <r>   25.3376    0.0000 </r>
       <r>   25.4888    0.0000 </r>
       <r>   25.4888    0.0000 </r>
       <r>   28.8083    0.0000 </r>
       <r>   29.9955    0.0000 </r>
       <r>   30.2754    0.0000 </r>
       <r>   30.2754    0.0000 </r>
       <r>   30.8735    0.0000 </r>
       <r>   30.8735    0.0000 </r>
       <r>   31.6979    0.0000 </r>
       <r>   35.1490    0.0000 </r>
       <r>   35.1490    0.0000 </r>
       <r>   35.3175    0.0000 </r>
       <r>   35.3175    0.0000 </r>
       <r>   36.1418    0.0000 </r>
       <r>   37.2530    0.0000 </r>
       <r>   37.4012    0.0000 </r>
       <r>   42.5109    0.0000 </r>
       <r>   42.5110    0.0000 </r>
       <r>   42.7711    0.0000 </r>
       <r>   43.7355    0.0000 </r>
       <r>   43.7356    0.0000 </r>
       <r>   44.7239    0.0000 </r>
       <r>   48.2165    0.0000 </r>
       <r>   48.2515    0.0000 </r>
       <r>   50.3505    0.0000 </r>
       <r>   50.7011    0.0000 </r>
       <r>   51.1584    0.0000 </r>
       <r>   54.1817    0.0000 </r>
       <r>   54.4360    0.0000 </r>
       <r>   56.7836    0.0000 </r>
       <r>   58.7943    0.0000 </r>
       <r>   58.9289    0.0000 </r>
       <r>   58.9386    0.0000 </r>
       <r>   62.9406    0.0000 </r>
       <r>   63.8990    0.0000 </r>
       <r>   64.2518    0.0000 </r>
       <r>   68.8738    0.0000 </r>
       <r>   69.1573    0.0000 </r>
      </set>
      <set comment="kpoint 2">
       <r>   -6.8631    1.0000 </r>
       <r>   -3.8377    1.0000 </r>
       <r>    2.2552    1.0000 </r>
       <r>    2.2552    1.0000 </r>
       <r>    4.1003   -0.0000 </r>
       <r>    7.5162    0.0000 </r>
       <r>    7.5162    0.0000 </r>
       <r>   10.9615    0.0000 </r>
       <r>   14.3341    0.0000 </r>
       <r>   14.9637    0.0000 </r>
       <r>   14.9637    0.0000 </r>
       <r>   15.0570    0.0000 </r>
       <r>   16.1054    0.0000 </r>
       <r>   16.1054    0.0000 </r>
       <r>   22.5630    0.0000 </r>
       <r>   23.9467    0.0000 </r>
       <r>   25.1061    0.0000 </r>
       <r>   25.1061    0.0000 </r>
       <r>   25.7222    0.0000 </r>
       <r>   25.7222    0.0000 </r>
       <r>   28.7277    0.0000 </r>
       <r>   30.0768    0.0000 </r>
       <r>   30.2741    0.0000 </r>
       <r>   30.2741    0.0000 </r>
       <r>   30.8717    0.0000 </r>
       <r>   30.8717    0.0000 </r>
       <r>   31.6955    0.0000 </r>
       <r>   35.1506    0.0000 </r>
       <r>   35.1506    0.0000 </r>
       <r>   35.3247    0.0000 </r>
       <r>   35.3247    0.0000 </r>
       <r>   36.1338    0.0000 </r>
       <r>   37.2583    0.0000 </r>
       <r>   37.4140    0.0000 </r>
       <r>   42.5110    0.0000 </r>
       <r>   42.5110    0.0000 </r>
       <r>   42.7723    0.0000 </r>
       <r>   43.7348    0.0000 </r>
       <r>   43.7348    0.0000 </r>
       <r>   44.7245    0.0000 </r>
       <r>   48.0538    0.0000 </r>
       <r>   48.0637    0.0000 </r>
       <r>   50.1468    0.0000 </r>
       <r>   50.4430    0.0000 </r>
       <r>   50.7394    0.0000 </r>
       <r>   54.1990    0.0000 </r>
       <r>   54.2546    0.0000 </r>
       <r>   55.9277    0.0000 </r>
       <r>   57.6776    0.0000 </r>
       <r>   58.6757    0.0000 </r>
       <r>   58.7117    0.0000 </r>
       <r>   62.5862    0.0000 </r>
       <r>   63.8076    0.0000 </r>
       <r>   63.9410    0.0000 </r>
       <r>   68.2484    0.0000 </r>
       <r>   68.7249    0.0000 </r>
      </set>
      <set comment="kpoint 3">
       <r>   -6.8776    1.0000 </r>
       <r>   -3.8153    1.0000 </r>
       <r>    2.2580    1.0000 </r>
       <r>    2.2580    1.0000 </r>
       <r>    4.1028   -0.0000 </r>
       <r>    7.5173    0.0000 </r>
       <r>    7.5173    0.0000 </r>
       <r>   10.9651    0.0000 </r>
       <r>   14.1823    0.0000 </r>
       <r>   14.8653    0.0000 </r>
       <r>   14.8653    0.0000 </r>
       <r>   15.2034    0.0000 </r>
       <r>   16.2152    0.0000 </r>
       <r>   16.2152    0.0000 </r>
       <r>   22.3872    0.0000 </r>
       <r>   24.1374    0.0000 </r>
       <r>   24.8150    0.0000 </r>
       <r>   24.8150    0.0000 </r>
       <r>   26.0184    0.0000 </r>
       <r>   26.0184    0.0000 </r>
       <r>   28.5305    0.0000 </r>
       <r>   30.2702    0.0000 </r>
       <r>   30.2702    0.0000 </r>
       <r>   30.2760    0.0000 </r>
       <r>   30.8659    0.0000 </r>
       <r>   30.8659    0.0000 </r>
       <r>   31.6882    0.0000 </r>
       <r>   35.1556    0.0000 </r>
       <r>   35.1556    0.0000 </r>
       <r>   35.3455    0.0000 </r>
       <r>   35.3455    0.0000 </r>
       <r>   36.1110    0.0000 </r>
       <r>   37.2742    0.0000 </r>
       <r>   37.4510    0.0000 </r>
       <r>   42.5117    0.0000 </r>
       <r>   42.5140    0.0000 </r>
       <r>   42.7749    0.0000 </r>
       <r>   43.7328    0.0000 </r>
       <r>   43.7329    0.0000 </r>
       <r>   44.7246    0.0000 </r>
       <r>   47.8157    0.0000 </r>
       <r>   47.8224    0.0000 </r>
       <r>   49.7987    0.0000 </r>
       <r>   50.1108    0.0000 </r>
       <r>   50.1126    0.0000 </r>
       <r>   52.8651    0.0000 </r>
       <r>   53.5509    0.0000 </r>
       <r>   54.4945    0.0000 </r>
       <r>   56.4890    0.0000 </r>
       <r>   58.1951    0.0000 </r>
       <r>   59.3000    0.0000 </r>
       <r>   59.6345    0.0000 </r>
       <r>   62.8046    0.0000 </r>
       <r>   63.9475    0.0000 </r>
       <r>   66.4879    0.0000 </r>
       <r>   66.5706    0.0000 </r>
      </set>
      <set comment="kpoint 4">
       <r>   -6.9013    1.0000 </r>
       <r>   -3.7784    1.0000 </r>
       <r>    2.2626    1.0000 </r>
       <r>    2.2626    1.0000 </r>
       <r>    4.1069   -0.0000 </r>
       <r>    7.5189    0.0000 </r>
       <r>    7.5189    0.0000 </r>
       <r>   10.9710    0.0000 </r>
       <r>   13.9990    0.0000 </r>
       <r>   14.7304    0.0000 </r>
       <r>   14.7304    0.0000 </r>
       <r>   15.3772    0.0000 </r>
       <r>   16.3692    0.0000 </r>
       <r>   16.3692    0.0000 </r>
       <r>   22.1615    0.0000 </r>
       <r>   24.3880    0.0000 </r>
       <r>   24.5230    0.0000 </r>
       <r>   24.5230    0.0000 </r>
       <r>   26.3188    0.0000 </r>
       <r>   26.3188    0.0000 </r>
       <r>   28.2787    0.0000 </r>
       <r>   30.2639    0.0000 </r>
       <r>   30.2640    0.0000 </r>
       <r>   30.5310    0.0000 </r>
       <r>   30.8566    0.0000 </r>
       <r>   30.8566    0.0000 </r>
       <r>   31.6763    0.0000 </r>
       <r>   35.1655    0.0000 </r>
       <r>   35.1666    0.0000 </r>
       <r>   35.3787    0.0000 </r>
       <r>   35.3789    0.0000 </r>
       <r>   36.0766    0.0000 </r>
       <r>   37.3053    0.0000 </r>
       <r>   37.5098    0.0000 </r>
       <r>   42.6075    0.0000 </r>
       <r>   42.6674    0.0000 </r>
       <r>   42.9223    0.0000 </r>
       <r>   43.8025    0.0000 </r>
       <r>   43.9598    0.0000 </r>
       <r>   44.5137    0.0000 </r>
       <r>   47.5349    0.0000 </r>
       <r>   47.7020    0.0000 </r>
       <r>   50.0008    0.0000 </r>
       <r>   50.8607    0.0000 </r>
       <r>   52.1304    0.0000 </r>
       <r>   52.9393    0.0000 </r>
       <r>   53.7025    0.0000 </r>
       <r>   55.8944    0.0000 </r>
       <r>   58.4576    0.0000 </r>
       <r>   58.9316    0.0000 </r>
       <r>   59.8152    0.0000 </r>
       <r>   59.8982    0.0000 </r>
       <r>   62.0077    0.0000 </r>
       <r>   63.8427    0.0000 </r>
       <r>   64.3587    0.0000 </r>
       <r>   69.2342    0.0000 </r>
      </set>
      <set comment="kpoint 5">
       <r>   -6.9335    1.0000 </r>
       <r>   -3.7277    1.0000 </r>
       <r>    2.2691    1.0000 </r>
       <r>    2.2691    1.0000 </r>
       <r>    4.1128   -0.0000 </r>
       <r>    7.5211    0.0000 </r>
       <r>    7.5211    0.0000 </r>
       <r>   10.9790    0.0000 </r>
       <r>   13.8038    0.0000 </r>
       <r>   14.5769    0.0000 </r>
       <r>   14.5769    0.0000 </r>
       <r>   15.5580    0.0000 </r>
       <r>   16.5493    0.0000 </r>
       <r>   16.5493    0.0000 </r>
       <r>   21.9173    0.0000 </r>
       <r>   24.2325    0.0000 </r>
       <r>   24.2325    0.0000 </r>
       <r>   24.6671    0.0000 </r>
       <r>   26.6205    0.0000 </r>
       <r>   26.6205    0.0000 </r>
       <r>   28.0048    0.0000 </r>
       <r>   30.2555    0.0000 </r>
       <r>   30.2555    0.0000 </r>
       <r>   30.8097    0.0000 </r>
       <r>   30.8439    0.0000 </r>
       <r>   30.8439    0.0000 </r>
       <r>   31.6596    0.0000 </r>
       <r>   35.1810    0.0000 </r>
       <r>   35.1810    0.0000 </r>
       <r>   35.4226    0.0000 </r>
       <r>   35.4226    0.0000 </r>
       <r>   36.0350    0.0000 </r>
       <r>   37.3373    0.0000 </r>
       <r>   37.5859    0.0000 </r>
       <r>   42.5104    0.0000 </r>
       <r>   42.5104    0.0000 </r>
       <r>   42.7892    0.0000 </r>
       <r>   43.7188    0.0000 </r>
       <r>   43.7189    0.0000 </r>
       <r>   44.7335    0.0000 </r>
       <r>   47.2245    0.0000 </r>
       <r>   47.2250    0.0000 </r>
       <r>   49.7022    0.0000 </r>
       <r>   50.3972    0.0000 </r>
       <r>   50.4374    0.0000 </r>
       <r>   53.4800    0.0000 </r>
       <r>   53.6545    0.0000 </r>
       <r>   54.9472    0.0000 </r>
       <r>   55.8968    0.0000 </r>
       <r>   57.6075    0.0000 </r>
       <r>   57.7406    0.0000 </r>
       <r>   57.8893    0.0000 </r>
       <r>   61.3590    0.0000 </r>
       <r>   63.7348    0.0000 </r>
       <r>   66.4647    0.0000 </r>
       <r>   66.7431    0.0000 </r>
      </set>
      <set comment="kpoint 6">
       <r>   -6.9733    1.0000 </r>
       <r>   -3.6641    1.0000 </r>
       <r>    2.2774    1.0000 </r>
       <r>    2.2774    1.0000 </r>
       <r>    4.1203   -0.0000 </r>
       <r>    7.5238    0.0000 </r>
       <r>    7.5238    0.0000 </r>
       <r>   10.9891    0.0000 </r>
       <r>   13.6037    0.0000 </r>
       <r>   14.4148    0.0000 </r>
       <r>   14.4148    0.0000 </r>
       <r>   15.7374    0.0000 </r>
       <r>   16.7458    0.0000 </r>
       <r>   16.7458    0.0000 </r>
       <r>   21.6699    0.0000 </r>
       <r>   23.9442    0.0000 </r>
       <r>   23.9442    0.0000 </r>
       <r>   24.9591    0.0000 </r>
       <r>   26.9225    0.0000 </r>
       <r>   26.9225    0.0000 </r>
       <r>   27.7241    0.0000 </r>
       <r>   30.2454    0.0000 </r>
       <r>   30.2454    0.0000 </r>
       <r>   30.8283    0.0000 </r>
       <r>   30.8283    0.0000 </r>
       <r>   31.0973    0.0000 </r>
       <r>   31.6386    0.0000 </r>
       <r>   35.2033    0.0000 </r>
       <r>   35.2033    0.0000 </r>
       <r>   35.4762    0.0000 </r>
       <r>   35.4762    0.0000 </r>
       <r>   35.9908    0.0000 </r>
       <r>   37.3841    0.0000 </r>
       <r>   37.6766    0.0000 </r>
       <r>   42.5102    0.0000 </r>
       <r>   42.5102    0.0000 </r>
       <r>   42.7994    0.0000 </r>
       <r>   43.7053    0.0000 </r>
       <r>   43.7053    0.0000 </r>
       <r>   44.7389    0.0000 </r>
       <r>   46.8998    0.0000 </r>
       <r>   46.8999    0.0000 </r>
       <r>   49.4387    0.0000 </r>
       <r>   50.2570    0.0000 </r>
       <r>   50.4700    0.0000 </r>
       <r>   52.7764    0.0000 </r>
       <r>   53.0132    0.0000 </r>
       <r>   54.8409    0.0000 </r>
       <r>   56.0543    0.0000 </r>
       <r>   56.6275    0.0000 </r>
       <r>   57.5266    0.0000 </r>
       <r>   58.4642    0.0000 </r>
       <r>   61.2985    0.0000 </r>
       <r>   62.6964    0.0000 </r>
       <r>   63.2939    0.0000 </r>
       <r>   66.4291    0.0000 </r>
      </set>
      <set comment="kpoint 7">
       <r>   -7.0199    1.0000 </r>
       <r>   -3.5885    1.0000 </r>
       <r>    2.2876    1.0000 </r>
       <r>    2.2876    1.0000 </r>
       <r>    4.1295   -0.0000 </r>
       <r>    7.5270    0.0000 </r>
       <r>    7.5270    0.0000 </r>
       <r>   11.0009    0.0000 </r>
       <r>   13.4020    0.0000 </r>
       <r>   14.2495    0.0000 </r>
       <r>   14.2495    0.0000 </r>
       <r>   15.9104    0.0000 </r>
       <r>   16.9532    0.0000 </r>
       <r>   16.9532    0.0000 </r>
       <r>   21.4279    0.0000 </r>
       <r>   23.6583    0.0000 </r>
       <r>   23.6583    0.0000 </r>
       <r>   25.2531    0.0000 </r>
       <r>   27.2237    0.0000 </r>
       <r>   27.2237    0.0000 </r>
       <r>   27.4471    0.0000 </r>
       <r>   30.2342    0.0000 </r>
       <r>   30.2342    0.0000 </r>
       <r>   30.8106    0.0000 </r>
       <r>   30.8106    0.0000 </r>
       <r>   31.3858    0.0000 </r>
       <r>   31.6135    0.0000 </r>
       <r>   35.2328    0.0000 </r>
       <r>   35.2328    0.0000 </r>
       <r>   35.5384    0.0000 </r>
       <r>   35.5384    0.0000 </r>
       <r>   35.9486    0.0000 </r>
       <r>   37.4409    0.0000 </r>
       <r>   37.7786    0.0000 </r>
       <r>   42.5138    0.0000 </r>
       <r>   42.5393    0.0000 </r>
       <r>   42.8063    0.0000 </r>
       <r>   43.6839    0.0000 </r>
       <r>   43.6885    0.0000 </r>
       <r>   44.7470    0.0000 </r>
       <r>   46.5726    0.0000 </r>
       <r>   46.5836    0.0000 </r>
       <r>   49.1978    0.0000 </r>
       <r>   50.6016    0.0000 </r>
       <r>   50.9150    0.0000 </r>
       <r>   53.0465    0.0000 </r>
       <r>   53.3027    0.0000 </r>
       <r>   54.6916    0.0000 </r>
       <r>   55.3811    0.0000 </r>
       <r>   56.3374    0.0000 </r>
       <r>   57.5307    0.0000 </r>
       <r>   58.6328    0.0000 </r>
       <r>   59.2141    0.0000 </r>
       <r>   62.9062    0.0000 </r>
       <r>   64.3141    0.0000 </r>
       <r>   66.3445    0.0000 </r>
      </set>
      <set comment="kpoint 8">
       <r>   -7.0722    1.0000 </r>
       <r>   -3.5019    1.0000 </r>
       <r>    2.2996    1.0000 </r>
       <r>    2.2996    1.0000 </r>
       <r>    4.1403   -0.0000 </r>
       <r>    7.5303    0.0000 </r>
       <r>    7.5303    0.0000 </r>
       <r>   11.0140    0.0000 </r>
       <r>   13.2006    0.0000 </r>
       <r>   14.0842    0.0000 </r>
       <r>   14.0842    0.0000 </r>
       <r>   16.0728    0.0000 </r>
       <r>   17.1686    0.0000 </r>
       <r>   17.1686    0.0000 </r>
       <r>   21.1975    0.0000 </r>
       <r>   23.3750    0.0000 </r>
       <r>   23.3750    0.0000 </r>
       <r>   25.5358    0.0000 </r>
       <r>   27.1867    0.0000 </r>
       <r>   27.5228    0.0000 </r>
       <r>   27.5228    0.0000 </r>
       <r>   30.2225    0.0000 </r>
       <r>   30.2226    0.0000 </r>
       <r>   30.7916    0.0000 </r>
       <r>   30.7916    0.0000 </r>
       <r>   31.5847    0.0000 </r>
       <r>   31.6698    0.0000 </r>
       <r>   35.2697    0.0000 </r>
       <r>   35.2736    0.0000 </r>
       <r>   35.6086    0.0000 </r>
       <r>   35.6167    0.0000 </r>
       <r>   35.9127    0.0000 </r>
       <r>   37.5291    0.0000 </r>
       <r>   37.8799    0.0000 </r>
       <r>   42.5975    0.0000 </r>
       <r>   42.6296    0.0000 </r>
       <r>   42.9422    0.0000 </r>
       <r>   43.6356    0.0000 </r>
       <r>   43.9552    0.0000 </r>
       <r>   44.8967    0.0000 </r>
       <r>   46.2605    0.0000 </r>
       <r>   47.2062    0.0000 </r>
       <r>   48.6585    0.0000 </r>
       <r>   51.1700    0.0000 </r>
       <r>   51.7760    0.0000 </r>
       <r>   53.5223    0.0000 </r>
       <r>   53.6555    0.0000 </r>
       <r>   56.3340    0.0000 </r>
       <r>   56.7112    0.0000 </r>
       <r>   58.5463    0.0000 </r>
       <r>   58.6808    0.0000 </r>
       <r>   62.8646    0.0000 </r>
       <r>   65.0963    0.0000 </r>
       <r>   66.2616    0.0000 </r>
       <r>   68.7957    0.0000 </r>
       <r>   72.4334    0.0000 </r>
      </set>
      <set comment="kpoint 9">
       <r>   -7.1292    1.0000 </r>
       <r>   -3.4053    1.0000 </r>
       <r>    2.3134    1.0000 </r>
       <r>    2.3134    1.0000 </r>
       <r>    4.1527   -0.0000 </r>
       <r>    7.5338    0.0000 </r>
       <r>    7.5338    0.0000 </r>
       <r>   11.0279    0.0000 </r>
       <r>   13.0008    0.0000 </r>
       <r>   13.9207    0.0000 </r>
       <r>   13.9207    0.0000 </r>
       <r>   16.2203    0.0000 </r>
       <r>   17.3901    0.0000 </r>
       <r>   17.3901    0.0000 </r>
       <r>   20.9843    0.0000 </r>
       <r>   23.0946    0.0000 </r>
       <r>   23.0946    0.0000 </r>
       <r>   25.7780    0.0000 </r>
       <r>   26.9721    0.0000 </r>
       <r>   27.8179    0.0000 </r>
       <r>   27.8179    0.0000 </r>
       <r>   30.2114    0.0000 </r>
       <r>   30.2114    0.0000 </r>
       <r>   30.7727    0.0000 </r>
       <r>   30.7727    0.0000 </r>
       <r>   31.5520    0.0000 </r>
       <r>   31.9444    0.0000 </r>
       <r>   35.3140    0.0000 </r>
       <r>   35.3140    0.0000 </r>
       <r>   35.6860    0.0000 </r>
       <r>   35.6860    0.0000 </r>
       <r>   35.8878    0.0000 </r>
       <r>   37.5827    0.0000 </r>
       <r>   38.0077    0.0000 </r>
       <r>   42.5108    0.0000 </r>
       <r>   42.5163    0.0000 </r>
       <r>   42.8447    0.0000 </r>
       <r>   43.6028    0.0000 </r>
       <r>   43.6047    0.0000 </r>
       <r>   44.7620    0.0000 </r>
       <r>   45.9403    0.0000 </r>
       <r>   45.9493    0.0000 </r>
       <r>   48.6285    0.0000 </r>
       <r>   50.5981    0.0000 </r>
       <r>   51.5063    0.0000 </r>
       <r>   52.8440    0.0000 </r>
       <r>   53.0427    0.0000 </r>
       <r>   55.4779    0.0000 </r>
       <r>   56.4387    0.0000 </r>
       <r>   57.0415    0.0000 </r>
       <r>   57.1733    0.0000 </r>
       <r>   60.2978    0.0000 </r>
       <r>   62.3216    0.0000 </r>
       <r>   63.0814    0.0000 </r>
       <r>   64.4967    0.0000 </r>
       <r>   67.4934    0.0000 </r>
      </set>
      <set comment="kpoint 10">
       <r>   -7.1902    1.0000 </r>
       <r>   -3.2995    1.0000 </r>
       <r>    2.3290    1.0000 </r>
       <r>    2.3290    1.0000 </r>
       <r>    4.1668   -0.0000 </r>
       <r>    7.5372    0.0000 </r>
       <r>    7.5372    0.0000 </r>
       <r>   11.0417    0.0000 </r>
       <r>   12.8040    0.0000 </r>
       <r>   13.7602    0.0000 </r>
       <r>   13.7602    0.0000 </r>
       <r>   16.3481    0.0000 </r>
       <r>   17.6165    0.0000 </r>
       <r>   17.6165    0.0000 </r>
       <r>   20.7938    0.0000 </r>
       <r>   22.8173    0.0000 </r>
       <r>   22.8173    0.0000 </r>
       <r>   25.9070    0.0000 </r>
       <r>   26.8758    0.0000 </r>
       <r>   28.1063    0.0000 </r>
       <r>   28.1063    0.0000 </r>
       <r>   30.2020    0.0000 </r>
       <r>   30.2020    0.0000 </r>
       <r>   30.7559    0.0000 </r>
       <r>   30.7559    0.0000 </r>
       <r>   31.5164    0.0000 </r>
       <r>   32.2045    0.0000 </r>
       <r>   35.3654    0.0000 </r>
       <r>   35.3654    0.0000 </r>
       <r>   35.7699    0.0000 </r>
       <r>   35.7699    0.0000 </r>
       <r>   35.8787    0.0000 </r>
       <r>   37.6671    0.0000 </r>
       <r>   38.1316    0.0000 </r>
       <r>   42.5114    0.0000 </r>
       <r>   42.5114    0.0000 </r>
       <r>   42.8643    0.0000 </r>
       <r>   43.5296    0.0000 </r>
       <r>   43.5296    0.0000 </r>
       <r>   44.7702    0.0000 </r>
       <r>   45.6532    0.0000 </r>
       <r>   45.6532    0.0000 </r>
       <r>   48.3423    0.0000 </r>
       <r>   50.5216    0.0000 </r>
       <r>   50.6329    0.0000 </r>
       <r>   52.4520    0.0000 </r>
       <r>   52.7032    0.0000 </r>
       <r>   54.6179    0.0000 </r>
       <r>   55.1174    0.0000 </r>
       <r>   55.4688    0.0000 </r>
       <r>   55.6365    0.0000 </r>
       <r>   55.9616    0.0000 </r>
       <r>   57.9474    0.0000 </r>
       <r>   62.6596    0.0000 </r>
       <r>   63.6550    0.0000 </r>
       <r>   65.8666    0.0000 </r>
      </set>
      <set comment="kpoint 11">
       <r>   -7.2542    1.0000 </r>
       <r>   -3.1855    1.0000 </r>
       <r>    2.3464    1.0000 </r>
       <r>    2.3464    1.0000 </r>
       <r>    4.1825   -0.0000 </r>
       <r>    7.5404    0.0000 </r>
       <r>    7.5404    0.0000 </r>
       <r>   11.0541    0.0000 </r>
       <r>   12.6118    0.0000 </r>
       <r>   13.6037    0.0000 </r>
       <r>   13.6037    0.0000 </r>
       <r>   16.4507    0.0000 </r>
       <r>   17.8469    0.0000 </r>
       <r>   17.8469    0.0000 </r>
       <r>   20.6320    0.0000 </r>
       <r>   22.5432    0.0000 </r>
       <r>   22.5432    0.0000 </r>
       <r>   25.8452    0.0000 </r>
       <r>   26.9752    0.0000 </r>
       <r>   28.3838    0.0000 </r>
       <r>   28.3838    0.0000 </r>
       <r>   30.1957    0.0000 </r>
       <r>   30.1957    0.0000 </r>
       <r>   30.7446    0.0000 </r>
       <r>   30.7446    0.0000 </r>
       <r>   31.4778    0.0000 </r>
       <r>   32.4447    0.0000 </r>
       <r>   35.4240    0.0000 </r>
       <r>   35.4240    0.0000 </r>
       <r>   35.8597    0.0000 </r>
       <r>   35.8597    0.0000 </r>
       <r>   35.8909    0.0000 </r>
       <r>   37.7601    0.0000 </r>
       <r>   38.2602    0.0000 </r>
       <r>   42.5128    0.0000 </r>
       <r>   42.5269    0.0000 </r>
       <r>   42.8966    0.0000 </r>
       <r>   43.4238    0.0000 </r>
       <r>   43.4405    0.0000 </r>
       <r>   44.8235    0.0000 </r>
       <r>   45.3593    0.0000 </r>
       <r>   45.3983    0.0000 </r>
       <r>   48.0522    0.0000 </r>
       <r>   50.5043    0.0000 </r>
       <r>   50.8534    0.0000 </r>
       <r>   52.4485    0.0000 </r>
       <r>   52.6204    0.0000 </r>
       <r>   55.3621    0.0000 </r>
       <r>   56.0024    0.0000 </r>
       <r>   56.0700    0.0000 </r>
       <r>   56.5832    0.0000 </r>
       <r>   59.4841    0.0000 </r>
       <r>   60.1583    0.0000 </r>
       <r>   62.0650    0.0000 </r>
       <r>   63.1957    0.0000 </r>
       <r>   66.6577    0.0000 </r>
      </set>
      <set comment="kpoint 12">
       <r>   -7.3206    1.0000 </r>
       <r>   -3.0640    1.0000 </r>
       <r>    2.3657    1.0000 </r>
       <r>    2.3657    1.0000 </r>
       <r>    4.1998   -0.0000 </r>
       <r>    7.5430    0.0000 </r>
       <r>    7.5430    0.0000 </r>
       <r>   11.0631    0.0000 </r>
       <r>   12.4264    0.0000 </r>
       <r>   13.4519    0.0000 </r>
       <r>   13.4519    0.0000 </r>
       <r>   16.5227    0.0000 </r>
       <r>   18.0807    0.0000 </r>
       <r>   18.0807    0.0000 </r>
       <r>   20.5049    0.0000 </r>
       <r>   22.2727    0.0000 </r>
       <r>   22.2727    0.0000 </r>
       <r>   25.6495    0.0000 </r>
       <r>   27.2135    0.0000 </r>
       <r>   28.6446    0.0000 </r>
       <r>   28.6447    0.0000 </r>
       <r>   30.1937    0.0000 </r>
       <r>   30.1938    0.0000 </r>
       <r>   30.7443    0.0000 </r>
       <r>   30.7443    0.0000 </r>
       <r>   31.4373    0.0000 </r>
       <r>   32.6594    0.0000 </r>
       <r>   35.4898    0.0000 </r>
       <r>   35.5138    0.0000 </r>
       <r>   35.9306    0.0000 </r>
       <r>   35.9557    0.0000 </r>
       <r>   36.0203    0.0000 </r>
       <r>   38.1182    0.0000 </r>
       <r>   38.3362    0.0000 </r>
       <r>   42.6380    0.0000 </r>
       <r>   42.8896    0.0000 </r>
       <r>   43.3869    0.0000 </r>
       <r>   43.5932    0.0000 </r>
       <r>   43.6083    0.0000 </r>
       <r>   44.7829    0.0000 </r>
       <r>   44.8756    0.0000 </r>
       <r>   47.1779    0.0000 </r>
       <r>   50.6015    0.0000 </r>
       <r>   50.9459    0.0000 </r>
       <r>   51.1469    0.0000 </r>
       <r>   53.4969    0.0000 </r>
       <r>   53.8947    0.0000 </r>
       <r>   56.0736    0.0000 </r>
       <r>   57.6875    0.0000 </r>
       <r>   59.4380    0.0000 </r>
       <r>   62.0543    0.0000 </r>
       <r>   62.9022    0.0000 </r>
       <r>   62.9850    0.0000 </r>
       <r>   67.9522    0.0000 </r>
       <r>   69.5738    0.0000 </r>
       <r>   75.4598    0.0000 </r>
      </set>
      <set comment="kpoint 13">
       <r>   -7.3886    1.0000 </r>
       <r>   -2.9356    1.0000 </r>
       <r>    2.3867    1.0000 </r>
       <r>    2.3867    1.0000 </r>
       <r>    4.2187   -0.0000 </r>
       <r>    7.5449    0.0000 </r>
       <r>    7.5449    0.0000 </r>
       <r>   11.0654    0.0000 </r>
       <r>   12.2511    0.0000 </r>
       <r>   13.3054    0.0000 </r>
       <r>   13.3054    0.0000 </r>
       <r>   16.5590    0.0000 </r>
       <r>   18.3169    0.0000 </r>
       <r>   18.3169    0.0000 </r>
       <r>   20.4173    0.0000 </r>
       <r>   22.0063    0.0000 </r>
       <r>   22.0063    0.0000 </r>
       <r>   25.4006    0.0000 </r>
       <r>   27.5096    0.0000 </r>
       <r>   28.8794    0.0000 </r>
       <r>   28.8794    0.0000 </r>
       <r>   30.1963    0.0000 </r>
       <r>   30.1963    0.0000 </r>
       <r>   30.7637    0.0000 </r>
       <r>   30.7637    0.0000 </r>
       <r>   31.3937    0.0000 </r>
       <r>   32.8425    0.0000 </r>
       <r>   35.5615    0.0000 </r>
       <r>   35.5615    0.0000 </r>
       <r>   36.0016    0.0000 </r>
       <r>   36.0558    0.0000 </r>
       <r>   36.0558    0.0000 </r>
       <r>   37.9705    0.0000 </r>
       <r>   38.5279    0.0000 </r>
       <r>   42.5158    0.0000 </r>
       <r>   42.5305    0.0000 </r>
       <r>   42.9589    0.0000 </r>
       <r>   43.0830    0.0000 </r>
       <r>   43.0862    0.0000 </r>
       <r>   44.8354    0.0000 </r>
       <r>   44.9844    0.0000 </r>
       <r>   45.0187    0.0000 </r>
       <r>   47.4754    0.0000 </r>
       <r>   50.3859    0.0000 </r>
       <r>   50.6472    0.0000 </r>
       <r>   52.1004    0.0000 </r>
       <r>   52.2185    0.0000 </r>
       <r>   54.6680    0.0000 </r>
       <r>   55.3384    0.0000 </r>
       <r>   56.1599    0.0000 </r>
       <r>   56.4669    0.0000 </r>
       <r>   59.5733    0.0000 </r>
       <r>   61.0189    0.0000 </r>
       <r>   62.3892    0.0000 </r>
       <r>   62.6203    0.0000 </r>
       <r>   69.2401    0.0000 </r>
      </set>
      <set comment="kpoint 14">
       <r>   -7.4577    1.0000 </r>
       <r>   -2.8010    1.0000 </r>
       <r>    2.4094    1.0000 </r>
       <r>    2.4094    1.0000 </r>
       <r>    4.2391   -0.0000 </r>
       <r>    7.5458    0.0000 </r>
       <r>    7.5458    0.0000 </r>
       <r>   11.0562    0.0000 </r>
       <r>   12.0909    0.0000 </r>
       <r>   13.1648    0.0000 </r>
       <r>   13.1648    0.0000 </r>
       <r>   16.5562    0.0000 </r>
       <r>   18.5547    0.0000 </r>
       <r>   18.5547    0.0000 </r>
       <r>   20.3735    0.0000 </r>
       <r>   21.7445    0.0000 </r>
       <r>   21.7445    0.0000 </r>
       <r>   25.1324    0.0000 </r>
       <r>   27.8303    0.0000 </r>
       <r>   29.0780    0.0000 </r>
       <r>   29.0780    0.0000 </r>
       <r>   30.2012    0.0000 </r>
       <r>   30.2012    0.0000 </r>
       <r>   30.8162    0.0000 </r>
       <r>   30.8162    0.0000 </r>
       <r>   31.3487    0.0000 </r>
       <r>   32.9903    0.0000 </r>
       <r>   35.6396    0.0000 </r>
       <r>   35.6396    0.0000 </r>
       <r>   36.1095    0.0000 </r>
       <r>   36.1604    0.0000 </r>
       <r>   36.1604    0.0000 </r>
       <r>   38.0871    0.0000 </r>
       <r>   38.6656    0.0000 </r>
       <r>   42.5143    0.0000 </r>
       <r>   42.5143    0.0000 </r>
       <r>   42.8548    0.0000 </r>
       <r>   42.8548    0.0000 </r>
       <r>   42.9708    0.0000 </r>
       <r>   44.8129    0.0000 </r>
       <r>   44.8975    0.0000 </r>
       <r>   44.8975    0.0000 </r>
       <r>   47.1988    0.0000 </r>
       <r>   50.2996    0.0000 </r>
       <r>   50.3382    0.0000 </r>
       <r>   51.8706    0.0000 </r>
       <r>   51.9673    0.0000 </r>
       <r>   53.7460    0.0000 </r>
       <r>   54.6174    0.0000 </r>
       <r>   54.6733    0.0000 </r>
       <r>   55.1473    0.0000 </r>
       <r>   56.5275    0.0000 </r>
       <r>   56.9930    0.0000 </r>
       <r>   59.6027    0.0000 </r>
       <r>   60.6664    0.0000 </r>
       <r>   62.8778    0.0000 </r>
      </set>
      <set comment="kpoint 15">
       <r>   -7.5275    1.0000 </r>
       <r>   -2.6606    1.0000 </r>
       <r>    2.4339    1.0000 </r>
       <r>    2.4339    1.0000 </r>
       <r>    4.2611   -0.0000 </r>
       <r>    7.5453    0.0000 </r>
       <r>    7.5453    0.0000 </r>
       <r>   11.0281    0.0000 </r>
       <r>   11.9530    0.0000 </r>
       <r>   13.0305    0.0000 </r>
       <r>   13.0305    0.0000 </r>
       <r>   16.5134    0.0000 </r>
       <r>   18.7927    0.0000 </r>
       <r>   18.7927    0.0000 </r>
       <r>   20.3745    0.0000 </r>
       <r>   21.4888    0.0000 </r>
       <r>   21.4888    0.0000 </r>
       <r>   24.8570    0.0000 </r>
       <r>   28.1632    0.0000 </r>
       <r>   29.2314    0.0000 </r>
       <r>   29.2315    0.0000 </r>
       <r>   30.2032    0.0000 </r>
       <r>   30.2032    0.0000 </r>
       <r>   30.9166    0.0000 </r>
       <r>   30.9166    0.0000 </r>
       <r>   31.3026    0.0000 </r>
       <r>   33.1005    0.0000 </r>
       <r>   35.7279    0.0000 </r>
       <r>   35.7291    0.0000 </r>
       <r>   36.2559    0.0000 </r>
       <r>   36.2688    0.0000 </r>
       <r>   36.3998    0.0000 </r>
       <r>   38.5663    0.0000 </r>
       <r>   38.7207    0.0000 </r>
       <r>   42.5672    0.0000 </r>
       <r>   42.6181    0.0000 </r>
       <r>   42.7234    0.0000 </r>
       <r>   42.8994    0.0000 </r>
       <r>   43.2181    0.0000 </r>
       <r>   44.8212    0.0000 </r>
       <r>   44.8518    0.0000 </r>
       <r>   46.4406    0.0000 </r>
       <r>   49.7024    0.0000 </r>
       <r>   50.9072    0.0000 </r>
       <r>   51.3915    0.0000 </r>
       <r>   52.8967    0.0000 </r>
       <r>   53.0745    0.0000 </r>
       <r>   55.0282    0.0000 </r>
       <r>   57.3474    0.0000 </r>
       <r>   57.4514    0.0000 </r>
       <r>   60.0407    0.0000 </r>
       <r>   60.5865    0.0000 </r>
       <r>   62.0836    0.0000 </r>
       <r>   62.8955    0.0000 </r>
       <r>   67.8868    0.0000 </r>
       <r>   70.0653    0.0000 </r>
      </set>
      <set comment="kpoint 16">
       <r>   -7.5975    1.0000 </r>
       <r>   -2.5149    1.0000 </r>
       <r>    2.4601    1.0000 </r>
       <r>    2.4601    1.0000 </r>
       <r>    4.2845   -0.0000 </r>
       <r>    7.5432    0.0000 </r>
       <r>    7.5432    0.0000 </r>
       <r>   10.9727    0.0000 </r>
       <r>   11.8457    0.0000 </r>
       <r>   12.9031    0.0000 </r>
       <r>   12.9031    0.0000 </r>
       <r>   16.4327    0.0000 </r>
       <r>   19.0287    0.0000 </r>
       <r>   19.0287    0.0000 </r>
       <r>   20.4183    0.0000 </r>
       <r>   21.2410    0.0000 </r>
       <r>   21.2410    0.0000 </r>
       <r>   24.5794    0.0000 </r>
       <r>   28.5031    0.0000 </r>
       <r>   29.3372    0.0000 </r>
       <r>   29.3376    0.0000 </r>
       <r>   30.1969    0.0000 </r>
       <r>   30.1978    0.0000 </r>
       <r>   31.0730    0.0000 </r>
       <r>   31.0738    0.0000 </r>
       <r>   31.2542    0.0000 </r>
       <r>   33.1741    0.0000 </r>
       <r>   35.8180    0.0000 </r>
       <r>   35.8393    0.0000 </r>
       <r>   36.3803    0.0000 </r>
       <r>   36.4392    0.0000 </r>
       <r>   36.5269    0.0000 </r>
       <r>   38.7334    0.0000 </r>
       <r>   38.9297    0.0000 </r>
       <r>   42.3275    0.0000 </r>
       <r>   42.4194    0.0000 </r>
       <r>   42.6890    0.0000 </r>
       <r>   43.1097    0.0000 </r>
       <r>   43.7928    0.0000 </r>
       <r>   44.3476    0.0000 </r>
       <r>   44.9420    0.0000 </r>
       <r>   46.4135    0.0000 </r>
       <r>   49.9977    0.0000 </r>
       <r>   50.8429    0.0000 </r>
       <r>   51.9721    0.0000 </r>
       <r>   52.3397    0.0000 </r>
       <r>   53.2031    0.0000 </r>
       <r>   56.0982    0.0000 </r>
       <r>   58.2883    0.0000 </r>
       <r>   59.9929    0.0000 </r>
       <r>   61.5019    0.0000 </r>
       <r>   63.7869    0.0000 </r>
       <r>   64.0327    0.0000 </r>
       <r>   66.5212    0.0000 </r>
       <r>   75.9098    0.0000 </r>
       <r>   77.9925    0.0000 </r>
      </set>
      <set comment="kpoint 17">
       <r>   -7.6673    1.0000 </r>
       <r>   -2.3643    1.0000 </r>
       <r>    2.4880    1.0000 </r>
       <r>    2.4880    1.0000 </r>
       <r>    4.3094   -0.0000 </r>
       <r>    7.5392    0.0000 </r>
       <r>    7.5392    0.0000 </r>
       <r>   10.8845    0.0000 </r>
       <r>   11.7744    0.0000 </r>
       <r>   12.7830    0.0000 </r>
       <r>   12.7830    0.0000 </r>
       <r>   16.3184    0.0000 </r>
       <r>   19.2582    0.0000 </r>
       <r>   19.2582    0.0000 </r>
       <r>   20.5007    0.0000 </r>
       <r>   21.0059    0.0000 </r>
       <r>   21.0059    0.0000 </r>
       <r>   24.3023    0.0000 </r>
       <r>   28.8476    0.0000 </r>
       <r>   29.4015    0.0000 </r>
       <r>   29.4020    0.0000 </r>
       <r>   30.1806    0.0000 </r>
       <r>   30.1814    0.0000 </r>
       <r>   31.2094    0.0000 </r>
       <r>   31.2787    0.0000 </r>
       <r>   31.2815    0.0000 </r>
       <r>   33.2137    0.0000 </r>
       <r>   35.9136    0.0000 </r>
       <r>   35.9354    0.0000 </r>
       <r>   36.4933    0.0000 </r>
       <r>   36.6525    0.0000 </r>
       <r>   36.6549    0.0000 </r>
       <r>   38.9026    0.0000 </r>
       <r>   39.1307    0.0000 </r>
       <r>   41.9955    0.0000 </r>
       <r>   42.1479    0.0000 </r>
       <r>   42.6781    0.0000 </r>
       <r>   43.1111    0.0000 </r>
       <r>   43.7143    0.0000 </r>
       <r>   44.5853    0.0000 </r>
       <r>   45.0457    0.0000 </r>
       <r>   46.1200    0.0000 </r>
       <r>   49.9173    0.0000 </r>
       <r>   50.6594    0.0000 </r>
       <r>   51.7482    0.0000 </r>
       <r>   52.4079    0.0000 </r>
       <r>   52.7591    0.0000 </r>
       <r>   56.0737    0.0000 </r>
       <r>   58.1617    0.0000 </r>
       <r>   59.6682    0.0000 </r>
       <r>   61.2385    0.0000 </r>
       <r>   63.8971    0.0000 </r>
       <r>   64.2429    0.0000 </r>
       <r>   66.4745    0.0000 </r>
       <r>   75.8212    0.0000 </r>
       <r>   78.0630    0.0000 </r>
      </set>
      <set comment="kpoint 18">
       <r>   -7.7366    1.0000 </r>
       <r>   -2.2092    1.0000 </r>
       <r>    2.5176    1.0000 </r>
       <r>    2.5176    1.0000 </r>
       <r>    4.3358   -0.0000 </r>
       <r>    7.5328    0.0000 </r>
       <r>    7.5328    0.0000 </r>
       <r>   10.7649    0.0000 </r>
       <r>   11.7374    0.0000 </r>
       <r>   12.6707    0.0000 </r>
       <r>   12.6707    0.0000 </r>
       <r>   16.1763    0.0000 </r>
       <r>   19.4708    0.0000 </r>
       <r>   19.4708    0.0000 </r>
       <r>   20.6159    0.0000 </r>
       <r>   20.7935    0.0000 </r>
       <r>   20.7935    0.0000 </r>
       <r>   24.0275    0.0000 </r>
       <r>   29.1953    0.0000 </r>
       <r>   29.4346    0.0000 </r>
       <r>   29.4354    0.0000 </r>
       <r>   30.1554    0.0000 </r>
       <r>   30.1562    0.0000 </r>
       <r>   31.1580    0.0000 </r>
       <r>   31.5307    0.0000 </r>
       <r>   31.5311    0.0000 </r>
       <r>   33.2242    0.0000 </r>
       <r>   36.0143    0.0000 </r>
       <r>   36.0364    0.0000 </r>
       <r>   36.6072    0.0000 </r>
       <r>   36.8234    0.0000 </r>
       <r>   36.8560    0.0000 </r>
       <r>   39.0607    0.0000 </r>
       <r>   39.3398    0.0000 </r>
       <r>   41.6561    0.0000 </r>
       <r>   41.8413    0.0000 </r>
       <r>   42.6853    0.0000 </r>
       <r>   43.1513    0.0000 </r>
       <r>   43.9159    0.0000 </r>
       <r>   44.6822    0.0000 </r>
       <r>   45.2240    0.0000 </r>
       <r>   45.6470    0.0000 </r>
       <r>   49.8531    0.0000 </r>
       <r>   50.4892    0.0000 </r>
       <r>   51.3419    0.0000 </r>
       <r>   52.3267    0.0000 </r>
       <r>   52.6479    0.0000 </r>
       <r>   55.9844    0.0000 </r>
       <r>   58.1251    0.0000 </r>
       <r>   59.4977    0.0000 </r>
       <r>   60.9041    0.0000 </r>
       <r>   63.9855    0.0000 </r>
       <r>   64.4356    0.0000 </r>
       <r>   66.4326    0.0000 </r>
       <r>   75.6800    0.0000 </r>
       <r>   78.1918    0.0000 </r>
      </set>
      <set comment="kpoint 19">
       <r>   -7.8052    1.0000 </r>
       <r>   -2.0498    1.0000 </r>
       <r>    2.5488    1.0000 </r>
       <r>    2.5488    1.0000 </r>
       <r>    4.3635   -0.0000 </r>
       <r>    7.5239    0.0000 </r>
       <r>    7.5239    0.0000 </r>
       <r>   10.6211    0.0000 </r>
       <r>   11.7272    0.0000 </r>
       <r>   12.5665    0.0000 </r>
       <r>   12.5665    0.0000 </r>
       <r>   16.0125    0.0000 </r>
       <r>   19.6401    0.0000 </r>
       <r>   19.6401    0.0000 </r>
       <r>   20.6302    0.0000 </r>
       <r>   20.6302    0.0000 </r>
       <r>   20.7577    0.0000 </r>
       <r>   23.7564    0.0000 </r>
       <r>   29.4461    0.0000 </r>
       <r>   29.4471    0.0000 </r>
       <r>   29.5453    0.0000 </r>
       <r>   30.1236    0.0000 </r>
       <r>   30.1245    0.0000 </r>
       <r>   31.1083    0.0000 </r>
       <r>   31.8099    0.0000 </r>
       <r>   31.8100    0.0000 </r>
       <r>   33.2103    0.0000 </r>
       <r>   36.1190    0.0000 </r>
       <r>   36.1426    0.0000 </r>
       <r>   36.7206    0.0000 </r>
       <r>   36.9027    0.0000 </r>
       <r>   37.1655    0.0000 </r>
       <r>   39.2232    0.0000 </r>
       <r>   39.5213    0.0000 </r>
       <r>   41.3135    0.0000 </r>
       <r>   41.5232    0.0000 </r>
       <r>   42.6904    0.0000 </r>
       <r>   43.2209    0.0000 </r>
       <r>   44.4331    0.0000 </r>
       <r>   44.7253    0.0000 </r>
       <r>   45.0360    0.0000 </r>
       <r>   45.1965    0.0000 </r>
       <r>   49.6754    0.0000 </r>
       <r>   50.3480    0.0000 </r>
       <r>   51.1914    0.0000 </r>
       <r>   52.3232    0.0000 </r>
       <r>   52.6140    0.0000 </r>
       <r>   55.7973    0.0000 </r>
       <r>   58.1016    0.0000 </r>
       <r>   59.2262    0.0000 </r>
       <r>   60.6937    0.0000 </r>
       <r>   64.1508    0.0000 </r>
       <r>   64.6866    0.0000 </r>
       <r>   66.5455    0.0000 </r>
       <r>   75.7288    0.0000 </r>
       <r>   78.3873    0.0000 </r>
      </set>
      <set comment="kpoint 20">
       <r>   -7.8727    1.0000 </r>
       <r>   -1.8865    1.0000 </r>
       <r>    2.5816    1.0000 </r>
       <r>    2.5816    1.0000 </r>
       <r>    4.3925   -0.0000 </r>
       <r>    7.5120    0.0000 </r>
       <r>    7.5120    0.0000 </r>
       <r>   10.4611    0.0000 </r>
       <r>   11.7355    0.0000 </r>
       <r>   12.4709    0.0000 </r>
       <r>   12.4709    0.0000 </r>
       <r>   15.8328    0.0000 </r>
       <r>   19.7089    0.0000 </r>
       <r>   19.7089    0.0000 </r>
       <r>   20.5732    0.0000 </r>
       <r>   20.5732    0.0000 </r>
       <r>   20.9201    0.0000 </r>
       <r>   23.4904    0.0000 </r>
       <r>   29.4434    0.0000 </r>
       <r>   29.4443    0.0000 </r>
       <r>   29.8971    0.0000 </r>
       <r>   30.0874    0.0000 </r>
       <r>   30.0881    0.0000 </r>
       <r>   31.0586    0.0000 </r>
       <r>   32.1091    0.0000 </r>
       <r>   32.1094    0.0000 </r>
       <r>   33.1768    0.0000 </r>
       <r>   36.2281    0.0000 </r>
       <r>   36.2510    0.0000 </r>
       <r>   36.8314    0.0000 </r>
       <r>   37.0021    0.0000 </r>
       <r>   37.4543    0.0000 </r>
       <r>   39.3819    0.0000 </r>
       <r>   39.6865    0.0000 </r>
       <r>   40.9751    0.0000 </r>
       <r>   41.1837    0.0000 </r>
       <r>   42.6927    0.0000 </r>
       <r>   43.2483    0.0000 </r>
       <r>   44.1942    0.0000 </r>
       <r>   44.7361    0.0000 </r>
       <r>   44.9484    0.0000 </r>
       <r>   45.0611    0.0000 </r>
       <r>   49.4643    0.0000 </r>
       <r>   50.1633    0.0000 </r>
       <r>   50.9459    0.0000 </r>
       <r>   52.0673    0.0000 </r>
       <r>   52.1669    0.0000 </r>
       <r>   55.4790    0.0000 </r>
       <r>   58.1327    0.0000 </r>
       <r>   58.8187    0.0000 </r>
       <r>   60.4788    0.0000 </r>
       <r>   64.2601    0.0000 </r>
       <r>   64.9414    0.0000 </r>
       <r>   66.6732    0.0000 </r>
       <r>   75.6957    0.0000 </r>
       <r>   78.8403    0.0000 </r>
      </set>
      <set comment="kpoint 21">
       <r>   -7.9391    1.0000 </r>
       <r>   -1.7194    1.0000 </r>
       <r>    2.6159    1.0000 </r>
       <r>    2.6159    1.0000 </r>
       <r>    4.4228   -0.0000 </r>
       <r>    7.4969    0.0000 </r>
       <r>    7.4969    0.0000 </r>
       <r>   10.2907    0.0000 </r>
       <r>   11.7557    0.0000 </r>
       <r>   12.3842    0.0000 </r>
       <r>   12.3842    0.0000 </r>
       <r>   15.6421    0.0000 </r>
       <r>   19.6378    0.0000 </r>
       <r>   19.6378    0.0000 </r>
       <r>   20.6619    0.0000 </r>
       <r>   20.6619    0.0000 </r>
       <r>   21.0966    0.0000 </r>
       <r>   23.2317    0.0000 </r>
       <r>   29.4311    0.0000 </r>
       <r>   29.4320    0.0000 </r>
       <r>   30.0481    0.0000 </r>
       <r>   30.0488    0.0000 </r>
       <r>   30.2499    0.0000 </r>
       <r>   31.0090    0.0000 </r>
       <r>   32.4225    0.0000 </r>
       <r>   32.4229    0.0000 </r>
       <r>   33.1272    0.0000 </r>
       <r>   36.3403    0.0000 </r>
       <r>   36.3648    0.0000 </r>
       <r>   36.9368    0.0000 </r>
       <r>   37.1013    0.0000 </r>
       <r>   37.7506    0.0000 </r>
       <r>   39.5327    0.0000 </r>
       <r>   39.7914    0.0000 </r>
       <r>   40.6440    0.0000 </r>
       <r>   40.8875    0.0000 </r>
       <r>   42.6994    0.0000 </r>
       <r>   43.2966    0.0000 </r>
       <r>   44.2411    0.0000 </r>
       <r>   44.7471    0.0000 </r>
       <r>   44.8703    0.0000 </r>
       <r>   44.9138    0.0000 </r>
       <r>   49.2169    0.0000 </r>
       <r>   50.0400    0.0000 </r>
       <r>   50.5745    0.0000 </r>
       <r>   51.9177    0.0000 </r>
       <r>   51.9291    0.0000 </r>
       <r>   55.1956    0.0000 </r>
       <r>   58.0381    0.0000 </r>
       <r>   58.6696    0.0000 </r>
       <r>   60.3134    0.0000 </r>
       <r>   64.5382    0.0000 </r>
       <r>   64.9302    0.0000 </r>
       <r>   66.9308    0.0000 </r>
       <r>   75.7132    0.0000 </r>
       <r>   79.3148    0.0000 </r>
      </set>
      <set comment="kpoint 22">
       <r>   -8.0042    1.0000 </r>
       <r>   -1.5488    1.0000 </r>
       <r>    2.6518    1.0000 </r>
       <r>    2.6518    1.0000 </r>
       <r>    4.4543   -0.0000 </r>
       <r>    7.4782    0.0000 </r>
       <r>    7.4782    0.0000 </r>
       <r>   10.1141    0.0000 </r>
       <r>   11.7831    0.0000 </r>
       <r>   12.3069    0.0000 </r>
       <r>   12.3069    0.0000 </r>
       <r>   15.4450    0.0000 </r>
       <r>   19.4751    0.0000 </r>
       <r>   19.4751    0.0000 </r>
       <r>   20.8480    0.0000 </r>
       <r>   20.8480    0.0000 </r>
       <r>   21.2801    0.0000 </r>
       <r>   22.9844    0.0000 </r>
       <r>   29.4124    0.0000 </r>
       <r>   29.4135    0.0000 </r>
       <r>   30.0070    0.0000 </r>
       <r>   30.0077    0.0000 </r>
       <r>   30.6036    0.0000 </r>
       <r>   30.9599    0.0000 </r>
       <r>   32.7457    0.0000 </r>
       <r>   32.7465    0.0000 </r>
       <r>   33.0649    0.0000 </r>
       <r>   36.4571    0.0000 </r>
       <r>   36.4814    0.0000 </r>
       <r>   37.0332    0.0000 </r>
       <r>   37.1964    0.0000 </r>
       <r>   38.0554    0.0000 </r>
       <r>   39.6870    0.0000 </r>
       <r>   39.9049    0.0000 </r>
       <r>   40.3204    0.0000 </r>
       <r>   40.7009    0.0000 </r>
       <r>   42.7159    0.0000 </r>
       <r>   43.3835    0.0000 </r>
       <r>   44.3153    0.0000 </r>
       <r>   44.7680    0.0000 </r>
       <r>   44.7804    0.0000 </r>
       <r>   45.1328    0.0000 </r>
       <r>   49.2255    0.0000 </r>
       <r>   49.8860    0.0000 </r>
       <r>   50.5174    0.0000 </r>
       <r>   51.7734    0.0000 </r>
       <r>   51.8317    0.0000 </r>
       <r>   54.9932    0.0000 </r>
       <r>   57.7894    0.0000 </r>
       <r>   58.6944    0.0000 </r>
       <r>   59.8471    0.0000 </r>
       <r>   64.5576    0.0000 </r>
       <r>   64.8345    0.0000 </r>
       <r>   67.1724    0.0000 </r>
       <r>   75.6104    0.0000 </r>
       <r>   79.4033    0.0000 </r>
      </set>
      <set comment="kpoint 23">
       <r>   -8.0677    1.0000 </r>
       <r>   -1.3749    1.0000 </r>
       <r>    2.6891    1.0000 </r>
       <r>    2.6891    1.0000 </r>
       <r>    4.4868   -0.0000 </r>
       <r>    7.4559    0.0000 </r>
       <r>    7.4559    0.0000 </r>
       <r>    9.9337    0.0000 </r>
       <r>   11.8144    0.0000 </r>
       <r>   12.2391    0.0000 </r>
       <r>   12.2391    0.0000 </r>
       <r>   15.2453    0.0000 </r>
       <r>   19.2742    0.0000 </r>
       <r>   19.2742    0.0000 </r>
       <r>   21.0779    0.0000 </r>
       <r>   21.0779    0.0000 </r>
       <r>   21.4588    0.0000 </r>
       <r>   22.7574    0.0000 </r>
       <r>   29.3895    0.0000 </r>
       <r>   29.3905    0.0000 </r>
       <r>   29.9647    0.0000 </r>
       <r>   29.9654    0.0000 </r>
       <r>   30.9115    0.0000 </r>
       <r>   30.9572    0.0000 </r>
       <r>   32.9950    0.0000 </r>
       <r>   33.0741    0.0000 </r>
       <r>   33.0754    0.0000 </r>
       <r>   36.5765    0.0000 </r>
       <r>   36.5996    0.0000 </r>
       <r>   37.1146    0.0000 </r>
       <r>   37.2683    0.0000 </r>
       <r>   38.3632    0.0000 </r>
       <r>   39.8256    0.0000 </r>
       <r>   39.9578    0.0000 </r>
       <r>   39.9708    0.0000 </r>
       <r>   40.6423    0.0000 </r>
       <r>   42.7303    0.0000 </r>
       <r>   43.4590    0.0000 </r>
       <r>   44.2715    0.0000 </r>
       <r>   44.8148    0.0000 </r>
       <r>   44.8259    0.0000 </r>
       <r>   45.2867    0.0000 </r>
       <r>   49.0317    0.0000 </r>
       <r>   49.8526    0.0000 </r>
       <r>   50.3389    0.0000 </r>
       <r>   51.6691    0.0000 </r>
       <r>   51.7534    0.0000 </r>
       <r>   54.7568    0.0000 </r>
       <r>   57.4527    0.0000 </r>
       <r>   58.8213    0.0000 </r>
       <r>   59.5180    0.0000 </r>
[...]
       <r>    4.6135   -0.0000 </r>
       <r>   13.2561    0.0000 </r>
       <r>   13.2561    0.0000 </r>
       <r>   15.3098    0.0000 </r>
       <r>   15.6396    0.0000 </r>
       <r>   16.4724    0.0000 </r>
       <r>   16.4725    0.0000 </r>
       <r>   17.1869    0.0000 </r>
       <r>   17.5273    0.0000 </r>
       <r>   22.5692    0.0000 </r>
       <r>   22.5692    0.0000 </r>
       <r>   22.5850    0.0000 </r>
       <r>   23.1326    0.0000 </r>
       <r>   23.2060    0.0000 </r>
       <r>   23.2067    0.0000 </r>
       <r>   23.3381    0.0000 </r>
       <r>   23.8798    0.0000 </r>
       <r>   30.7068    0.0000 </r>
       <r>   30.9928    0.0000 </r>
       <r>   32.2162    0.0000 </r>
       <r>   32.2539    0.0000 </r>
       <r>   35.8861    0.0000 </r>
       <r>   35.9607    0.0000 </r>
       <r>   36.0292    0.0000 </r>
       <r>   37.6161    0.0000 </r>
       <r>   38.7851    0.0000 </r>
       <r>   39.0015    0.0000 </r>
       <r>   39.1379    0.0000 </r>
       <r>   40.2402    0.0000 </r>
       <r>   41.5498    0.0000 </r>
       <r>   41.8369    0.0000 </r>
       <r>   41.9179    0.0000 </r>
       <r>   44.2735    0.0000 </r>
       <r>   45.6255    0.0000 </r>
       <r>   47.8892    0.0000 </r>
       <r>   48.3661    0.0000 </r>
       <r>   51.0094    0.0000 </r>
       <r>   51.5745    0.0000 </r>
       <r>   53.1707    0.0000 </r>
       <r>   53.6209    0.0000 </r>
       <r>   56.3412    0.0000 </r>
       <r>   57.1807    0.0000 </r>
       <r>   58.4228    0.0000 </r>
       <r>   59.4879    0.0000 </r>
       <r>   61.4607    0.0000 </r>
       <r>   64.7317    0.0000 </r>
       <r>   65.8925    0.0000 </r>
       <r>   68.9889    0.0000 </r>
       <r>   71.3467    0.0000 </r>
       <r>   74.1824    0.0000 </r>
       <r>   76.5843    0.0000 </r>
      </set>
      <set comment="kpoint 100">
       <r>   -5.0673    1.0000 </r>
       <r>   -5.0673    1.0000 </r>
       <r>    0.5682    1.0000 </r>
       <r>    0.5682    1.0000 </r>
       <r>    4.5699   -0.0000 </r>
       <r>    4.5699   -0.0000 </r>
       <r>   13.2710    0.0000 </r>
       <r>   13.2710    0.0000 </r>
       <r>   15.4786    0.0000 </r>
       <r>   15.4786    0.0000 </r>
       <r>   16.4557    0.0000 </r>
       <r>   16.4557    0.0000 </r>
       <r>   17.3554    0.0000 </r>
       <r>   17.3554    0.0000 </r>
       <r>   22.8738    0.0000 </r>
       <r>   22.8766    0.0000 </r>
       <r>   22.8824    0.0000 </r>
       <r>   22.8834    0.0000 </r>
       <r>   22.8848    0.0000 </r>
       <r>   22.8878    0.0000 </r>
       <r>   23.5852    0.0000 </r>
       <r>   23.5853    0.0000 </r>
       <r>   30.8382    0.0000 </r>
       <r>   30.8641    0.0000 </r>
       <r>   32.2246    0.0000 </r>
       <r>   32.2688    0.0000 </r>
       <r>   35.8375    0.0000 </r>
       <r>   35.9149    0.0000 </r>
       <r>   36.4645    0.0000 </r>
       <r>   37.6700    0.0000 </r>
       <r>   38.7520    0.0000 </r>
       <r>   38.9881    0.0000 </r>
       <r>   39.1414    0.0000 </r>
       <r>   40.2470    0.0000 </r>
       <r>   40.6532    0.0000 </r>
       <r>   41.6355    0.0000 </r>
       <r>   42.5489    0.0000 </r>
       <r>   44.1626    0.0000 </r>
       <r>   45.7275    0.0000 </r>
       <r>   47.6095    0.0000 </r>
       <r>   48.6325    0.0000 </r>
       <r>   50.5033    0.0000 </r>
       <r>   51.9216    0.0000 </r>
       <r>   52.7806    0.0000 </r>
       <r>   54.0580    0.0000 </r>
       <r>   56.9977    0.0000 </r>
       <r>   57.4330    0.0000 </r>
       <r>   58.7299    0.0000 </r>
       <r>   59.9199    0.0000 </r>
       <r>   61.1062    0.0000 </r>
       <r>   64.7847    0.0000 </r>
       <r>   66.5452    0.0000 </r>
       <r>   68.4506    0.0000 </r>
       <r>   70.5664    0.0000 </r>
       <r>   74.5663    0.0000 </r>
       <r>   77.1063    0.0000 </r>
      </set>
     </set>
    </set>
   </array>
  </eigenvalues>
  <separator name="orbital magnetization" >
   <v name="MAGDIPOLOUT">      0.00000000      0.00000000      0.00000000</v>
  </separator>
  <dos>
   <i name="efermi">      3.72250844 </i>
   <total>
    <array>
     <dimension dim="1">gridpoints</dimension>
     <dimension dim="2">spin</dimension>
     <field>energy</field>
     <field>total</field>
     <field>integrated</field>
     <set>
      <set comment="spin 1">
       <r>   -13.5640     0.0000     0.0000 </r>
       <r>   -13.2264     0.0000     0.0000 </r>
       <r>   -12.8889     0.0000     0.0000 </r>
       <r>   -12.5514     0.0000     0.0000 </r>
       <r>   -12.2138     0.0000     0.0000 </r>
       <r>   -11.8763     0.0000     0.0000 </r>
       <r>   -11.5388     0.0000     0.0000 </r>
       <r>   -11.2012     0.0000     0.0000 </r>
       <r>   -10.8637     0.0000     0.0000 </r>
       <r>   -10.5262     0.0000     0.0000 </r>
       <r>   -10.1886     0.0000     0.0000 </r>
       <r>    -9.8511     0.0000     0.0000 </r>
       <r>    -9.5135    -0.0000    -0.0000 </r>
       <r>    -9.1760    -0.0000    -0.0000 </r>
       <r>    -8.8385     1.1478     0.3874 </r>
       <r>    -8.5009     1.0304     0.7332 </r>
       <r>    -8.1634     0.6845     0.9636 </r>
       <r>    -7.8259     0.5645     1.1537 </r>
       <r>    -7.4883     0.5026     1.3229 </r>
       <r>    -7.1508     0.5006     1.4911 </r>
       <r>    -6.8133     0.7098     1.7304 </r>
       <r>    -6.4757     0.1562     1.7820 </r>
       <r>    -6.1382     0.1728     1.8401 </r>
       <r>    -5.8006     0.1361     1.8861 </r>
       <r>    -5.4631     0.1599     1.9400 </r>
       <r>    -5.1256     0.1152     1.9789 </r>
       <r>    -4.7880     0.1893     2.0425 </r>
       <r>    -4.4505     0.1396     2.0896 </r>
       <r>    -4.1130     0.1341     2.1349 </r>
       <r>    -3.7754     0.3375     2.2488 </r>
       <r>    -3.4379     0.3887     2.3793 </r>
       <r>    -3.1004     0.2924     2.4774 </r>
       <r>    -2.7628     0.2836     2.5727 </r>
       <r>    -2.4253     0.2213     2.6474 </r>
       <r>    -2.0878     0.2233     2.7225 </r>
       <r>    -1.7502     0.2323     2.8009 </r>
       <r>    -1.4127     0.2351     2.8802 </r>
       <r>    -1.0751     0.2367     2.9599 </r>
       <r>    -0.7376     0.2359     3.0389 </r>
       <r>    -0.4001     0.2086     3.1091 </r>
       <r>    -0.0625     0.1959     3.1752 </r>
       <r>     0.2750     0.1938     3.2406 </r>
       <r>     0.6125     0.8599     3.5307 </r>
       <r>     0.9501     1.3816     3.9969 </r>
       <r>     1.2876     0.8093     4.2691 </r>
       <r>     1.6251     0.7497     4.5211 </r>
       <r>     1.9627     0.7008     4.7574 </r>
       <r>     2.3002     1.4156     5.2352 </r>
       <r>     2.6378     2.2516     5.9945 </r>
       <r>     2.9753     1.5934     6.5315 </r>
       <r>     3.3128     1.4796     7.0296 </r>
       <r>     3.6504     2.0147     7.7084 </r>
       <r>     3.9879     0.8658     7.9997 </r>
       <r>     4.3254     1.3075     8.4410 </r>
       <r>     4.6630     2.3659     9.2384 </r>
       <r>     5.0005     1.8025     9.8449 </r>
       <r>     5.3380     0.6443    10.0600 </r>
       <r>     5.6756     0.5974    10.2611 </r>
       <r>     6.0131     0.5930    10.4598 </r>
       <r>     6.3507     1.9413    11.1142 </r>
       <r>     6.6882     2.0786    11.8100 </r>
       <r>     7.0257     1.4803    12.3077 </r>
       <r>     7.3633     1.2184    12.7183 </r>
       <r>     7.7008     3.3820    13.8588 </r>
       <r>     8.0383     0.3555    13.9782 </r>
       <r>     8.3759     0.3580    14.0987 </r>
       <r>     8.7134     0.3602    14.2199 </r>
       <r>     9.0509     0.3582    14.3398 </r>
       <r>     9.3885     0.3385    14.4533 </r>
       <r>     9.7260     0.3281    14.5627 </r>
       <r>    10.0635     0.3184    14.6701 </r>
       <r>    10.4011     0.6373    14.8853 </r>
       <r>    10.7386     1.2647    15.3121 </r>
       <r>    11.0762     1.9523    15.9693 </r>
       <r>    11.4137     0.8463    16.2530 </r>
       <r>    11.7512     0.9435    16.5693 </r>
       <r>    12.0888     2.2635    17.3308 </r>
       <r>    12.4263     2.1213    18.0453 </r>
       <r>    12.7638     1.4644    18.5381 </r>
       <r>    13.1014     1.6823    19.1041 </r>
       <r>    13.4389     2.2958    19.8764 </r>
       <r>    13.7764     0.9327    20.1904 </r>
       <r>    14.1140     1.4592    20.6819 </r>
       <r>    14.4515     1.2951    21.1179 </r>
       <r>    14.7891     2.6033    21.9953 </r>
       <r>    15.1266     2.0505    22.6860 </r>
       <r>    15.4641     1.4909    23.1873 </r>
       <r>    15.8017     1.4023    23.6601 </r>
       <r>    16.1392     1.5583    24.1850 </r>
       <r>    16.4767     2.0433    24.8716 </r>
       <r>    16.8143     1.6764    25.4358 </r>
       <r>    17.1518     1.1341    25.8169 </r>
       <r>    17.4893     1.0602    26.1742 </r>
       <r>    17.8269     1.4050    26.6480 </r>
       <r>    18.1644     1.4143    27.1248 </r>
       <r>    18.5020     1.1828    27.5230 </r>
       <r>    18.8395     0.9880    27.8557 </r>
       <r>    19.1770     0.9771    28.1848 </r>
       <r>    19.5146     1.2548    28.6072 </r>
       <r>    19.8521     0.9580    28.9300 </r>
       <r>    20.1896     0.6988    29.1658 </r>
       <r>    20.5272     0.9839    29.4961 </r>
       <r>    20.8647     1.4224    29.9756 </r>
       <r>    21.2022     1.1039    30.3448 </r>
       <r>    21.5398     1.1643    30.7376 </r>
       <r>    21.8773     1.4715    31.2324 </r>
       <r>    22.2148     1.0678    31.5925 </r>
       <r>    22.5524     1.2758    32.0220 </r>
       <r>    22.8899     1.4166    32.4990 </r>
       <r>    23.2275     1.1117    32.8731 </r>
       <r>    23.5650     1.1254    33.2519 </r>
       <r>    23.9025     1.1131    33.6258 </r>
       <r>    24.2401     1.1852    34.0253 </r>
       <r>    24.5776     1.0204    34.3685 </r>
       <r>    24.9151     1.0775    34.7315 </r>
       <r>    25.2527     1.1086    35.1049 </r>
       <r>    25.5902     1.0964    35.4739 </r>
       <r>    25.9277     1.1021    35.8436 </r>
       <r>    26.2653     0.8976    36.1450 </r>
       <r>    26.6028     0.9133    36.4531 </r>
       <r>    26.9404     1.0283    36.7996 </r>
       <r>    27.2779     1.0969    37.1688 </r>
       <r>    27.6154     1.0317    37.5160 </r>
       <r>    27.9530     1.2377    37.9326 </r>
       <r>    28.2905     1.6623    38.4933 </r>
       <r>    28.6280     1.3320    38.9414 </r>
       <r>    28.9656     2.7290    39.8619 </r>
       <r>    29.3031     3.0312    40.8834 </r>
       <r>    29.6406     5.1490    42.6184 </r>
       <r>    29.9782     2.6071    43.4952 </r>
       <r>    30.3157     5.6432    45.3980 </r>
       <r>    30.6533     2.4070    46.2022 </r>
       <r>    30.9908     3.9229    47.5238 </r>
       <r>    31.3283     2.4414    48.3423 </r>
       <r>    31.6659     2.4715    49.1725 </r>
       <r>    32.0034     1.8849    49.8061 </r>
       <r>    32.3409     1.9436    50.4610 </r>
       <r>    32.6785     1.1543    50.8479 </r>
       <r>    33.0160     1.2606    51.2721 </r>
       <r>    33.3535     1.3907    51.7401 </r>
       <r>    33.6911     0.7887    52.0040 </r>
       <r>    34.0286     0.7261    52.2469 </r>
       <r>    34.3661     0.7574    52.5016 </r>
       <r>    34.7037     0.6504    52.7211 </r>
       <r>    35.0412     0.7867    52.9863 </r>
       <r>    35.3788     2.5567    53.8487 </r>
       <r>    35.7163     1.7812    54.4480 </r>
       <r>    36.0538     2.3748    55.2462 </r>
       <r>    36.3914     1.9052    55.8866 </r>
       <r>    36.7289     2.8194    56.8370 </r>
       <r>    37.0664     2.0526    57.5254 </r>
       <r>    37.4040     2.6603    58.4218 </r>
       <r>    37.7415     2.3275    59.2039 </r>
       <r>    38.0790     1.6199    59.7473 </r>
       <r>    38.4166     1.7334    60.3306 </r>
       <r>    38.7541     2.0391    61.0168 </r>
       <r>    39.0917     2.8961    61.9925 </r>
       <r>    39.4292     4.0111    63.3448 </r>
       <r>    39.7667     2.3486    64.1359 </r>
       <r>    40.1043     2.0595    64.8283 </r>
       <r>    40.4418     2.0947    65.5348 </r>
       <r>    40.7793     1.9585    66.1950 </r>
       <r>    41.1169     2.0926    66.8997 </r>
       <r>    41.4544     2.5574    67.7599 </r>
       <r>    41.7919     2.9449    68.7529 </r>
       <r>    42.1295     3.2726    69.8550 </r>
       <r>    42.4670     1.5950    70.3920 </r>
       <r>    42.8046     4.5569    71.9299 </r>
       <r>    43.1421     2.7571    72.8581 </r>
       <r>    43.4796     2.4487    73.6836 </r>
       <r>    43.8172     4.2571    75.1188 </r>
       <r>    44.1547     2.8287    76.0698 </r>
       <r>    44.4922     4.0419    77.4323 </r>
       <r>    44.8298     3.6814    78.6714 </r>
       <r>    45.1673     3.0005    79.6785 </r>
       <r>    45.5048     3.0750    80.7150 </r>
       <r>    45.8424     2.3892    81.5190 </r>
       <r>    46.1799     2.1075    82.2290 </r>
       <r>    46.5174     1.2150    82.6370 </r>
       <r>    46.8550     1.3405    83.0882 </r>
       <r>    47.1925     2.3314    83.8739 </r>
       <r>    47.5301     2.1161    84.5866 </r>
       <r>    47.8676     1.7436    85.1734 </r>
       <r>    48.2051     1.7082    85.7492 </r>
       <r>    48.5427     2.1091    86.4600 </r>
       <r>    48.8802     1.3846    86.9269 </r>
       <r>    49.2177     1.3659    87.3861 </r>
       <r>    49.5553     1.7001    87.9587 </r>
       <r>    49.8928     1.7866    88.5601 </r>
       <r>    50.2303     2.0384    89.2472 </r>
       <r>    50.5679     2.0513    89.9348 </r>
       <r>    50.9054     2.6519    90.8270 </r>
       <r>    51.2430     1.5950    91.3616 </r>
       <r>    51.5805     1.1983    91.7645 </r>
       <r>    51.9180     1.3687    92.2258 </r>
       <r>    52.2556     1.2504    92.6475 </r>
       <r>    52.5931     1.4917    93.1504 </r>
       <r>    52.9306     1.8808    93.7840 </r>
       <r>    53.2682     1.7092    94.3589 </r>
       <r>    53.6057     1.8631    94.9863 </r>
       <r>    53.9432     1.1261    95.3653 </r>
       <r>    54.2808     0.7407    95.6151 </r>
       <r>    54.6183     0.7593    95.8698 </r>
       <r>    54.9559     0.8891    96.1696 </r>
       <r>    55.2934     0.8915    96.4698 </r>
       <r>    55.6309     0.7749    96.7289 </r>
       <r>    55.9685     0.8583    97.0170 </r>
       <r>    56.3060     0.9703    97.3422 </r>
       <r>    56.6435     0.9662    97.6664 </r>
       <r>    56.9811     0.9284    97.9793 </r>
       <r>    57.3186     1.3293    98.4275 </r>
       <r>    57.6561     1.4198    98.9060 </r>
       <r>    57.9937     1.1736    99.3003 </r>
       <r>    58.3312     0.9926    99.6343 </r>
       <r>    58.6687     1.0134    99.9755 </r>
       <r>    59.0063     1.1312   100.3572 </r>
       <r>    59.3438     0.9407   100.6721 </r>
       <r>    59.6814     0.7164   100.9130 </r>
       <r>    60.0189     0.3831   101.0411 </r>
       <r>    60.3564     0.3544   101.1606 </r>
       <r>    60.6940     0.3766   101.2875 </r>
       <r>    61.0315     0.5390   101.4688 </r>
       <r>    61.3690     1.0664   101.8287 </r>
       <r>    61.7066     0.7614   102.0834 </r>
       <r>    62.0441     0.5550   102.2708 </r>
       <r>    62.3816     0.6217   102.4797 </r>
       <r>    62.7192     0.5566   102.6676 </r>
       <r>    63.0567     1.0362   103.0172 </r>
       <r>    63.3943     0.5369   103.1972 </r>
       <r>    63.7318     0.5159   103.3707 </r>
       <r>    64.0693     1.7763   103.9697 </r>
       <r>    64.4069     1.3814   104.4342 </r>
       <r>    64.7444     1.0200   104.7770 </r>
       <r>    65.0819     1.3778   105.2419 </r>
       <r>    65.4195     0.7901   105.5077 </r>
       <r>    65.7570     0.7055   105.7449 </r>
       <r>    66.0945     0.9278   106.0580 </r>
       <r>    66.4321     1.0115   106.3990 </r>
       <r>    66.7696     1.2004   106.8030 </r>
       <r>    67.1072     0.3452   106.9179 </r>
       <r>    67.4447     0.3371   107.0317 </r>
       <r>    67.7822     0.7421   107.2817 </r>
       <r>    68.1198     0.5501   107.4655 </r>
       <r>    68.4573     0.4330   107.6115 </r>
       <r>    68.7948     0.5899   107.8106 </r>
       <r>    69.1324     0.7123   108.0497 </r>
       <r>    69.4699     0.5065   108.2199 </r>
       <r>    69.8074     0.1189   108.2600 </r>
       <r>    70.1450     0.0851   108.2887 </r>
       <r>    70.4825     0.0337   108.2996 </r>
       <r>    70.8200     0.1197   108.3400 </r>
       <r>    71.1576     0.0609   108.3606 </r>
       <r>    71.4951     0.0574   108.3794 </r>
       <r>    71.8327     0.0590   108.3993 </r>
       <r>    72.1702     0.0587   108.4191 </r>
       <r>    72.5077     0.2943   108.5185 </r>
       <r>    72.8453     0.2434   108.6001 </r>
       <r>    73.1828     0.1175   108.6397 </r>
       <r>    73.5203     0.1681   108.6964 </r>
       <r>    73.8579     0.2476   108.7800 </r>
       <r>    74.1954     0.1015   108.8142 </r>
       <r>    74.5329     0.0183   108.8204 </r>
       <r>    74.8705     0.2376   108.9006 </r>
       <r>    75.2080     0.8251   109.1791 </r>
       <r>    75.5456     1.1028   109.5506 </r>
       <r>    75.8831     0.5966   109.7508 </r>
       <r>    76.2206     0.2098   109.8216 </r>
       <r>    76.5582     0.0905   109.8517 </r>
       <r>    76.8957     0.2625   109.9403 </r>
       <r>    77.2332     0.1207   109.9807 </r>
       <r>    77.5708     0.0899   110.0110 </r>
       <r>    77.9083     0.1420   110.0589 </r>
       <r>    78.2458     0.3695   110.1836 </r>
       <r>    78.5834     0.2855   110.2800 </r>
       <r>    78.9209     0.3805   110.4084 </r>
       <r>    79.2585     0.1509   110.4589 </r>
       <r>    79.5960     0.4534   110.6117 </r>
       <r>    79.9335     0.4360   110.7585 </r>
       <r>    80.2711     0.5951   110.9588 </r>
       <r>    80.6086     0.7091   111.1971 </r>
       <r>    80.9461     0.5567   111.3848 </r>
       <r>    81.2837     0.2025   111.4524 </r>
       <r>    81.6212     0.2230   111.5276 </r>
       <r>    81.9587     0.3189   111.6352 </r>
       <r>    82.2963     0.1159   111.6743 </r>
       <r>    82.6338     0.3124   111.7797 </r>
       <r>    82.9713     0.3354   111.8929 </r>
       <r>    83.3089     0.3179   112.0000 </r>
       <r>    83.6464     0.0000   112.0000 </r>
       <r>    83.9840     0.0000   112.0000 </r>
       <r>    84.3215     0.0000   112.0000 </r>
       <r>    84.6590     0.0000   112.0000 </r>
       <r>    84.9966     0.0000   112.0000 </r>
       <r>    85.3341     0.0000   112.0000 </r>
       <r>    85.6716     0.0000   112.0000 </r>
       <r>    86.0092     0.0000   112.0000 </r>
       <r>    86.3467     0.0000   112.0000 </r>
       <r>    86.6842     0.0000   112.0000 </r>
       <r>    87.0218     0.0000   112.0000 </r>
       <r>    87.3593     0.0000   112.0000 </r>
       <r>    87.6969     0.0000   112.0000 </r>
      </set>
     </set>
    </array>
   </total>
  </dos>
 </calculation>
 <structure name="finalpos" >
  <crystal>
   <varray name="basis" >
    <v>       0.00000000       2.81650000       2.81650000 </v>
    <v>       2.81650000       0.00000000       2.81650000 </v>
    <v>       2.81650000       2.81650000       0.00000000 </v>
   </varray>
   <i name="volume">     44.68474278 </i>
   <varray name="rec_basis" >
    <v>      -0.17752530       0.17752530       0.17752530 </v>
    <v>       0.17752530      -0.17752530       0.17752530 </v>
    <v>       0.17752530       0.17752530      -0.17752530 </v>
   </varray>
  </crystal>
  <varray name="positions" >
   <v>       0.00000000       0.00000000       0.00000000 </v>
   <v>       0.25000000       0.25000000       0.25000000 </v>
  </varray>
 </structure>
</modeling>
