unknown system                          
   1.00000000000000     
     0.000000    3.029200    3.029200
     3.029200    0.000000    3.029200
     3.029200    3.029200    0.000000
   In   As
     1     1
Direct
  0.000000  0.000000  0.000000
  0.250000  0.250000  0.250000
 
   36   36   36
 -.38316674471E+01 -.32865966558E+01 -.17719179186E+01 0.39126736332E+00 0.27847311495E+01
 0.50147492440E+01 0.68030295888E+01 0.80198652207E+01 0.86657419829E+01 0.88292728857E+01
 0.86473491463E+01 0.82769095205E+01 0.78745831018E+01 0.75740101556E+01 0.73946897791E+01
 0.72834240004E+01 0.72105951855E+01 0.71667887683E+01 0.71518857154E+01 0.71667958017E+01
 0.72105997101E+01 0.72834203959E+01 0.73946844175E+01 0.75740136687E+01 0.78745975867E+01
 0.82769251338E+01 0.86473513672E+01 0.88292534710E+01 0.86657077214E+01 0.80198381273E+01
 0.68030329430E+01 0.50147866149E+01 0.27847794854E+01 0.39129617118E+00 -.17719182460E+01
 -.32866080898E+01 -.32865966558E+01 -.23298408608E+01 -.60398172980E+00 0.15747811770E+01
 0.38531000149E+01 0.59255921048E+01 0.75851995487E+01 0.87342030455E+01 0.93709585690E+01
 0.95698926563E+01 0.94613018657E+01 0.92077547576E+01 0.89743657647E+01 0.88604684136E+01
 0.88220985251E+01 0.88118531759E+01 0.88082814725E+01 0.88062312170E+01 0.88062171312E+01
 0.88082538073E+01 0.88118383909E+01 0.88221080811E+01 0.88604971960E+01 0.89744067948E+01
 0.92077992594E+01 0.94613289467E+01 0.95698800135E+01 0.93709115883E+01 0.87341589444E+01
 0.75851905466E+01 0.59256125068E+01 0.38531206368E+01 0.15747881240E+01 -.60397826224E+00
 -.23298324569E+01 -.32865913422E+01 -.17719179186E+01 -.60398172980E+00 0.11268000735E+01
 0.31601496659E+01 0.52279397591E+01 0.71005593982E+01 0.86126181165E+01 0.96748014245E+01
 0.10279928730E+02 0.10502337886E+02 0.10482823913E+02 0.10395232549E+02 0.10392412146E+02
 0.10477994719E+02 0.10585894772E+02 0.10676482837E+02 0.10733257355E+02 0.10752263363E+02
 0.10733253940E+02 0.10676462313E+02 0.10585852798E+02 0.10477952795E+02 0.10392403525E+02
 0.10395270102E+02 0.10482886167E+02 0.10502388540E+02 0.10279946251E+02 0.96747894856E+01
 0.86125955342E+01 0.71005453843E+01 0.52279419218E+01 0.31601575423E+01 0.11267939166E+01
 -.60400759882E+00 -.17719434529E+01 -.21849296650E+01 0.39126736332E+00 0.15747811770E+01
 0.31601496659E+01 0.49627688712E+01 0.67873933534E+01 0.84502460104E+01 0.98030206417E+01
 0.10761222800E+02 0.11328086165E+02 0.11598183945E+02 0.11730895154E+02 0.11898687333E+02
 0.12165563897E+02 0.12457346584E+02 0.12711314852E+02 0.12892157848E+02 0.12984831094E+02
 0.12984855515E+02 0.12892181352E+02 0.12711254445E+02 0.12457200579E+02 0.12165429989E+02
 0.11898662767E+02 0.11730982003E+02 0.11598303966E+02 0.11328167138E+02 0.10761248276E+02
 0.98030107976E+01 0.84502247277E+01 0.67873790355E+01 0.49627700440E+01 0.31601553073E+01
 0.15747710275E+01 0.39124204416E+00 -.24233076776E+00 -.24231668425E+00 0.27847311495E+01
 0.38531000149E+01 0.52279397591E+01 0.67873933534E+01 0.83787039945E+01 0.98384313848E+01
 0.11031192561E+02 0.11894195284E+02 0.12463766647E+02 0.12864886427E+02 0.13263779031E+02
 0.13767876508E+02 0.14311123256E+02 0.14805663834E+02 0.15190563394E+02 0.15431502389E+02
 0.15513192467E+02 0.15431543675E+02 0.15190560262E+02 0.14805547537E+02 0.14310933104E+02
 0.13767736082E+02 0.13263780483E+02 0.12865007156E+02 0.12463902892E+02 0.11894264947E+02
 0.11031192893E+02 0.98384069933E+01 0.83786863471E+01 0.67873843298E+01 0.52279365169E+01
 0.38531096206E+01 0.27847555480E+01 0.21092062153E+01 0.18782203938E+01 0.21091836977E+01
 0.50147492440E+01 0.59255921048E+01 0.71005593982E+01 0.84502460104E+01 0.98384313848E+01
 0.11117011777E+02 0.12180302619E+02 0.13011037334E+02 0.13690193798E+02 0.14361268685E+02
 0.15147099471E+02 0.15999502804E+02 0.16807357236E+02 0.17479893143E+02 0.17955744362E+02
 0.18200807376E+02 0.18200868477E+02 0.17955856918E+02 0.17479914845E+02 0.16807215090E+02
 0.15999267563E+02 0.15146924542E+02 0.14361257197E+02 0.13690320714E+02 0.13011189748E+02
 0.12180384240E+02 0.11117008176E+02 0.98383903260E+01 0.84502163211E+01 0.71005558594E+01
 0.59256045689E+01 0.50147650378E+01 0.44061322898E+01 0.41044066617E+01 0.41044020609E+01
 0.44061201369E+01 0.68030295888E+01 0.75851995487E+01 0.86126181165E+01 0.98030206417E+01
 0.11031192561E+02 0.12180302619E+02 0.13198104548E+02 0.14124948256E+02 0.15074364049E+02
 0.16164150560E+02 0.17360837823E+02 0.18536050685E+02 0.19568560632E+02 0.20364183481E+02
 0.20862233639E+02 0.21031437252E+02 0.20862447012E+02 0.20364405914E+02 0.19568569114E+02
 0.18535802072E+02 0.17360498542E+02 0.16163941914E+02 0.15074382083E+02 0.14125119615E+02
 0.13198284500E+02 0.12180395046E+02 0.11031193241E+02 0.98029826336E+01 0.86125918829E+01
 0.75851950957E+01 0.68030237024E+01 0.62849820208E+01 0.60021102736E+01 0.59138504387E+01
 0.60021357562E+01 0.62850057514E+01 0.80198652207E+01 0.87342030455E+01 0.96748014245E+01
 0.10761222800E+02 0.11894195284E+02 0.13011037334E+02 0.14124948256E+02 0.15321734252E+02
 0.16704897139E+02 0.18247384752E+02 0.19811995895E+02 0.21250822750E+02 0.22434167311E+02
 0.23263076245E+02 0.23682189161E+02 0.23682327696E+02 0.23263392754E+02 0.22434423618E+02
 0.21250805394E+02 0.19811692309E+02 0.18247005316E+02 0.16704691327E+02 0.15321780507E+02
 0.14125132412E+02 0.13011204888E+02 0.11894280211E+02 0.10761241993E+02 0.96747870115E+01
 0.87341728265E+01 0.80198326166E+01 0.75548201950E+01 0.73029421053E+01 0.72005325521E+01
 0.72005337186E+01 0.73029503400E+01 0.75548422533E+01 0.86657419829E+01 0.93709585690E+01
 0.10279928730E+02 0.11328086165E+02 0.12463766647E+02 0.13690193798E+02 0.15074364049E+02
 0.16704897139E+02 0.18555362270E+02 0.20490343860E+02 0.22344054397E+02 0.23948027515E+02
 0.25137635376E+02 0.25843157399E+02 0.26073977873E+02 0.25843444822E+02 0.25138054054E+02
 0.23948333756E+02 0.22344059536E+02 0.20490053616E+02 0.18554979210E+02 0.16704659385E+02
 0.15074365522E+02 0.13690349256E+02 0.12463925496E+02 0.11328161075E+02 0.10279929485E+02
 0.93709388624E+01 0.86657364464E+01 0.81957729830E+01 0.79377763707E+01 0.78277660221E+01
 0.78002103592E+01 0.78277663036E+01 0.79377713226E+01 0.81957660111E+01 0.88292728857E+01
 0.95698926563E+01 0.10502337886E+02 0.11598183945E+02 0.12864886427E+02 0.14361268685E+02
 0.16164150560E+02 0.18247384752E+02 0.20490343860E+02 0.22723271368E+02 0.24741657530E+02
 0.26307846373E+02 0.27320519198E+02 0.27803660343E+02 0.27803838280E+02 0.27320952652E+02
 0.26308309348E+02 0.24741940943E+02 0.22723270210E+02 0.20490081300E+02 0.18247011229E+02
 0.16163881180E+02 0.14361235631E+02 0.12865029111E+02 0.11598322603E+02 0.10502365526E+02
 0.95698589450E+01 0.88292749210E+01 0.83070984770E+01 0.79955680132E+01 0.78466943100E+01
 0.77952505074E+01 0.77952676202E+01 0.78467111738E+01 0.79955396887E+01 0.83070512400E+01
 0.86473491463E+01 0.94613018657E+01 0.10482823913E+02 0.11730895154E+02 0.13263779031E+02
 0.15147099471E+02 0.17360837823E+02 0.19811995895E+02 0.22344054397E+02 0.24741657530E+02
 0.26703131289E+02 0.28058183759E+02 0.28816732597E+02 0.29056393317E+02 0.28816900396E+02
 0.28058505070E+02 0.26703518458E+02 0.24741935259E+02 0.22344064606E+02 0.19811743386E+02
 0.17360507495E+02 0.15146898699E+02 0.13263767671E+02 0.11730980659E+02 0.10482893217E+02
 0.94613186760E+01 0.86473376438E+01 0.80438966003E+01 0.76463628715E+01 0.74239144167E+01
 0.73242957196E+01 0.72978667419E+01 0.73242830626E+01 0.74239023488E+01 0.76463623431E+01
 0.80439080416E+01 0.82769095205E+01 0.92077547576E+01 0.10395232549E+02 0.11898687333E+02
 0.13767876508E+02 0.15999502804E+02 0.18536050685E+02 0.21250822750E+02 0.23948027515E+02
 0.26307846373E+02 0.28058183759E+02 0.29146372785E+02 0.29650006133E+02 0.29649951732E+02
 0.29146345788E+02 0.28058388876E+02 0.26308235757E+02 0.23948315076E+02 0.21250808900E+02
 0.18535820078E+02 0.15999275157E+02 0.13767764499E+02 0.11898663331E+02 0.10395250030E+02
 0.92077968481E+01 0.82769427896E+01 0.75712675586E+01 0.70727396132E+01 0.67568737154E+01
 0.65849601878E+01 0.65135366003E+01 0.65135109268E+01 0.65849275332E+01 0.67568949637E+01
 0.70727942423E+01 0.75712865260E+01 0.78745831018E+01 0.89743657647E+01 0.10392412146E+02
 0.12165563897E+02 0.14311123256E+02 0.16807357236E+02 0.19568560632E+02 0.22434167311E+02
 0.25137635376E+02 0.27320519198E+02 0.28816732597E+02 0.29650006133E+02 0.29912418723E+02
 0.29649926265E+02 0.28816730417E+02 0.27320713743E+02 0.25137950292E+02 0.22434394770E+02
 0.19568564263E+02 0.16807186487E+02 0.14310936335E+02 0.12165471613E+02 0.10392409761E+02
 0.89743896134E+01 0.78745943421E+01 0.70407546276E+01 0.64319669067E+01 0.60163624746E+01
 0.57601558553E+01 0.56268070016E+01 0.55862864022E+01 0.56268298083E+01 0.57601779086E+01
 0.60163680910E+01 0.64319637896E+01 0.70407519718E+01 0.75740101556E+01 0.88604684136E+01
 0.10477994719E+02 0.12457346584E+02 0.14805663834E+02 0.17479893143E+02 0.20364183481E+02
 0.23263076245E+02 0.25843157399E+02 0.27803660343E+02 0.29056393317E+02 0.29649951732E+02
 0.29649926265E+02 0.29056343505E+02 0.27803663641E+02 0.25843292861E+02 0.23263320200E+02
 0.20364381895E+02 0.17479902352E+02 0.14805512477E+02 0.12457200144E+02 0.10477960042E+02
 0.88604978856E+01 0.75740142353E+01 0.65819884810E+01 0.58468667997E+01 0.53267048729E+01
 0.49825432814E+01 0.47788120571E+01 0.46857330216E+01 0.46857629394E+01 0.47788563352E+01
 0.49825371788E+01 0.53266640165E+01 0.58468548302E+01 0.65820088201E+01 0.73946897791E+01
 0.88220985251E+01 0.10585894772E+02 0.12711314852E+02 0.15190563394E+02 0.17955744362E+02
 0.20862233639E+02 0.23682189161E+02 0.26073977873E+02 0.27803838280E+02 0.28816900396E+02
 0.29146345788E+02 0.28816730417E+02 0.27803663641E+02 0.26073968237E+02 0.23682358903E+02
 0.20862443922E+02 0.17955852774E+02 0.15190548792E+02 0.12711253421E+02 0.10585852062E+02
 0.88220798634E+01 0.73946772074E+01 0.62677973884E+01 0.54056469300E+01 0.47735266819E+01
 0.43358988685E+01 0.40567760183E+01 0.39039827187E+01 0.38556311198E+01 0.39039731642E+01
 0.40567651926E+01 0.43358910112E+01 0.47735215314E+01 0.54056479102E+01 0.62678066939E+01
 0.72834240004E+01 0.88118531759E+01 0.10676482837E+02 0.12892157848E+02 0.15431502389E+02
 0.18200807376E+02 0.21031437252E+02 0.23682327696E+02 0.25843444822E+02 0.27320952652E+02
 0.28058505070E+02 0.28058388876E+02 0.27320713743E+02 0.25843292861E+02 0.23682358903E+02
 0.21031572853E+02 0.18200922151E+02 0.15431554789E+02 0.12892178371E+02 0.10676491155E+02
 0.88118401040E+01 0.72833946371E+01 0.60585844953E+01 0.51019322712E+01 0.43794715211E+01
 0.38579392620E+01 0.35043724171E+01 0.32884942002E+01 0.31869030677E+01 0.31868865458E+01
 0.32884675956E+01 0.35043681756E+01 0.38579522100E+01 0.43794782271E+01 0.51019358695E+01
 0.60586042169E+01 0.72105951855E+01 0.88082814725E+01 0.10733257355E+02 0.12984831094E+02
 0.15513192467E+02 0.18200868477E+02 0.20862447012E+02 0.23263392754E+02 0.25138054054E+02
 0.26308309348E+02 0.26703518458E+02 0.26308235757E+02 0.25137950292E+02 0.23263320200E+02
 0.20862443922E+02 0.18200922151E+02 0.15513253668E+02 0.12984860653E+02 0.10733256984E+02
 0.88082781264E+01 0.72106038554E+01 0.59153830166E+01 0.48896737724E+01 0.41001066006E+01
 0.35140753250E+01 0.30997541911E+01 0.28278681420E+01 0.26748361640E+01 0.26255481402E+01
 0.26748369174E+01 0.28278697043E+01 0.30997595441E+01 0.35140867893E+01 0.41001181484E+01
 0.48896743663E+01 0.59153719024E+01 0.71667887683E+01 0.88062312170E+01 0.10752263363E+02
 0.12984855515E+02 0.15431543675E+02 0.17955856918E+02 0.20364405914E+02 0.22434423618E+02
 0.23948333756E+02 0.24741940943E+02 0.24741935259E+02 0.23948315076E+02 0.22434394770E+02
 0.20364381895E+02 0.17955852774E+02 0.15431554789E+02 0.12984860653E+02 0.10752251541E+02
 0.88062171006E+01 0.71667942295E+01 0.58217502718E+01 0.47444583504E+01 0.39039549933E+01
 0.32683581448E+01 0.28060261118E+01 0.24876028862E+01 0.22890160363E+01 0.21937952503E+01
 0.21937976895E+01 0.22890223056E+01 0.24876119382E+01 0.28060369955E+01 0.32683644324E+01
 0.39039456606E+01 0.47444320004E+01 0.58217241700E+01 0.71518857154E+01 0.88062171312E+01
 0.10733253940E+02 0.12892181352E+02 0.15190560262E+02 0.17479914845E+02 0.19568569114E+02
 0.21250805394E+02 0.22344059536E+02 0.22723270210E+02 0.22344064606E+02 0.21250808900E+02
 0.19568564263E+02 0.17479902352E+02 0.15190548792E+02 0.12892178371E+02 0.10733256984E+02
 0.88062171006E+01 0.71518786706E+01 0.57744772151E+01 0.46578664976E+01 0.37765505133E+01
 0.31009016570E+01 0.25997119347E+01 0.22430439008E+01 0.20057356365E+01 0.18699731293E+01
 0.18257620317E+01 0.18699766036E+01 0.20057394665E+01 0.22430434953E+01 0.25997044115E+01
 0.31008892624E+01 0.37765407139E+01 0.46578660976E+01 0.57744849464E+01 0.71667958017E+01
 0.88082538073E+01 0.10676462313E+02 0.12711254445E+02 0.14805547537E+02 0.16807215090E+02
 0.18535802072E+02 0.19811692309E+02 0.20490053616E+02 0.20490081300E+02 0.19811743386E+02
 0.18535820078E+02 0.16807186487E+02 0.14805512477E+02 0.12711253421E+02 0.10676491155E+02
 0.88082781264E+01 0.71667942295E+01 0.57744772151E+01 0.46288958472E+01 0.37132635645E+01
 0.30026549813E+01 0.24677116849E+01 0.20783527991E+01 0.18080729119E+01 0.16373343493E+01
 0.15544916581E+01 0.15544960331E+01 0.16373390858E+01 0.18080658028E+01 0.20783363738E+01
 0.24677000124E+01 0.30026571797E+01 0.37132788448E+01 0.46289189978E+01 0.57744978694E+01
 0.72105997101E+01 0.88118383909E+01 0.10585852798E+02 0.12457200579E+02 0.14310933104E+02
 0.15999267563E+02 0.17360498542E+02 0.18247005316E+02 0.18554979210E+02 0.18247011229E+02
 0.17360507495E+02 0.15999275157E+02 0.14310936335E+02 0.12457200144E+02 0.10585852062E+02
 0.88118401040E+01 0.72106038554E+01 0.58217502718E+01 0.46578664976E+01 0.37132635645E+01
 0.29701954729E+01 0.24032138283E+01 0.19834858489E+01 0.16837243153E+01 0.14825007768E+01
 0.13661741681E+01 0.13280277750E+01 0.13661725427E+01 0.14824966243E+01 0.16837201000E+01
 0.19834871366E+01 0.24032227948E+01 0.29702073397E+01 0.37132712721E+01 0.46578672466E+01
 0.58217464880E+01 0.72834203959E+01 0.88221080811E+01 0.10477952795E+02 0.12165429989E+02
 0.13767736082E+02 0.15146924542E+02 0.16163941914E+02 0.16704691327E+02 0.16704659385E+02
 0.16163881180E+02 0.15146898699E+02 0.13767764499E+02 0.12165471613E+02 0.10477960042E+02
 0.88220798634E+01 0.72833946371E+01 0.59153830166E+01 0.47444583504E+01 0.37765505133E+01
 0.30026549813E+01 0.24032138283E+01 0.19525403415E+01 0.16239395254E+01 0.13946325703E+01
 0.12487664536E+01 0.11775818458E+01 0.11775812321E+01 0.12487648985E+01 0.13946322140E+01
 0.16239448957E+01 0.19525534516E+01 0.24032271604E+01 0.30026536036E+01 0.37765278366E+01
 0.47444302500E+01 0.59153776592E+01 0.73946844175E+01 0.88604971960E+01 0.10392403525E+02
 0.11898662767E+02 0.13263780483E+02 0.14361257197E+02 0.15074382083E+02 0.15321780507E+02
 0.15074365522E+02 0.14361235631E+02 0.13263767671E+02 0.11898663331E+02 0.10392409761E+02
 0.88604978856E+01 0.73946772074E+01 0.60585844953E+01 0.48896737724E+01 0.39039549933E+01
 0.31009016570E+01 0.24677116849E+01 0.19834858489E+01 0.16239395254E+01 0.13662545382E+01
 0.11927582380E+01 0.10922864615E+01 0.10593195727E+01 0.10922885428E+01 0.11927604267E+01
 0.13662563812E+01 0.16239420450E+01 0.19834871621E+01 0.24677066176E+01 0.31008887694E+01
 0.39039415829E+01 0.48896696635E+01 0.60585907504E+01 0.75740136687E+01 0.89744067948E+01
 0.10395270102E+02 0.11730982003E+02 0.12865007156E+02 0.13690320714E+02 0.14125119615E+02
 0.14125132412E+02 0.13690349256E+02 0.12865029111E+02 0.11730980659E+02 0.10395250030E+02
 0.89743896134E+01 0.75740142353E+01 0.62677973884E+01 0.51019322712E+01 0.41001066006E+01
 0.32683581448E+01 0.25997119347E+01 0.20783527991E+01 0.16837243153E+01 0.13946325703E+01
 0.11927582380E+01 0.10647423337E+01 0.10025271628E+01 0.10025241001E+01 0.10647393534E+01
 0.11927623245E+01 0.13946366673E+01 0.16837163027E+01 0.20783363409E+01 0.25997053410E+01
 0.32683696245E+01 0.41001217311E+01 0.51019333449E+01 0.62677878214E+01 0.78745975867E+01
 0.92077992594E+01 0.10482886167E+02 0.11598303966E+02 0.12463902892E+02 0.13011189748E+02
 0.13198284500E+02 0.13011204888E+02 0.12463925496E+02 0.11598322603E+02 0.10482893217E+02
 0.92077968481E+01 0.78745943421E+01 0.65819884810E+01 0.54056469300E+01 0.43794715211E+01
 0.35140753250E+01 0.28060261118E+01 0.22430439008E+01 0.18080729119E+01 0.14825007768E+01
 0.12487664536E+01 0.10922864615E+01 0.10025271628E+01 0.97328221801E+00 0.10025248556E+01
 0.10922859891E+01 0.12487676908E+01 0.14824985219E+01 0.18080668702E+01 0.22430426714E+01
 0.28060363953E+01 0.35140916367E+01 0.43794823420E+01 0.54056488228E+01 0.65819882955E+01
 0.82769251338E+01 0.94613289467E+01 0.10502388540E+02 0.11328167138E+02 0.11894264947E+02
 0.12180384240E+02 0.12180395046E+02 0.11894280211E+02 0.11328161075E+02 0.10502365526E+02
 0.94613186760E+01 0.82769427896E+01 0.70407546276E+01 0.58468667997E+01 0.47735266819E+01
 0.38579392620E+01 0.30997541911E+01 0.24876028862E+01 0.20057356365E+01 0.16373343493E+01
 0.13661741681E+01 0.11775818458E+01 0.10593195727E+01 0.10025241001E+01 0.10025248556E+01
 0.10593199245E+01 0.11775798318E+01 0.13661722860E+01 0.16373363978E+01 0.20057412609E+01
 0.24876097674E+01 0.30997633070E+01 0.38579507966E+01 0.47735314355E+01 0.58468525525E+01
 0.70407261896E+01 0.86473513672E+01 0.95698800135E+01 0.10279946251E+02 0.10761248276E+02
 0.11031192893E+02 0.11117008176E+02 0.11031193241E+02 0.10761241993E+02 0.10279929485E+02
 0.95698589450E+01 0.86473376438E+01 0.75712675586E+01 0.64319669067E+01 0.53267048729E+01
 0.43358988685E+01 0.35043724171E+01 0.28278681420E+01 0.22890160363E+01 0.18699731293E+01
 0.15544916581E+01 0.13280277750E+01 0.11775812321E+01 0.10922885428E+01 0.10647393534E+01
 0.10922859891E+01 0.11775798318E+01 0.13280295729E+01 0.15544948220E+01 0.18699754703E+01
 0.22890173755E+01 0.28278677969E+01 0.35043672031E+01 0.43358862688E+01 0.53266877323E+01
 0.64319535916E+01 0.75712667004E+01 0.88292534710E+01 0.93709115883E+01 0.96747894856E+01
 0.98030107976E+01 0.98384069933E+01 0.98383903260E+01 0.98029826336E+01 0.96747870115E+01
 0.93709388624E+01 0.88292749210E+01 0.80438966003E+01 0.70727396132E+01 0.60163624746E+01
 0.49825432814E+01 0.40567760183E+01 0.32884942002E+01 0.26748361640E+01 0.21937952503E+01
 0.18257620317E+01 0.15544960331E+01 0.13661725427E+01 0.12487648985E+01 0.11927604267E+01
 0.11927623245E+01 0.12487676908E+01 0.13661722860E+01 0.15544948220E+01 0.18257654022E+01
 0.21938009305E+01 0.26748308553E+01 0.32884691119E+01 0.40567452299E+01 0.49825367847E+01
 0.60163933651E+01 0.70727831582E+01 0.80439128180E+01 0.86657077214E+01 0.87341589444E+01
 0.86125955342E+01 0.84502247277E+01 0.83786863471E+01 0.84502163211E+01 0.86125918829E+01
 0.87341728265E+01 0.86657364464E+01 0.83070984770E+01 0.76463628715E+01 0.67568737154E+01
 0.57601558553E+01 0.47788120571E+01 0.39039827187E+01 0.31869030677E+01 0.26255481402E+01
 0.21937976895E+01 0.18699766036E+01 0.16373390858E+01 0.14824966243E+01 0.13946322140E+01
 0.13662563812E+01 0.13946366673E+01 0.14824985219E+01 0.16373363978E+01 0.18699754703E+01
 0.21938009305E+01 0.26255489663E+01 0.31868965939E+01 0.39039780739E+01 0.47788238772E+01
 0.57601838143E+01 0.67568978746E+01 0.76463628835E+01 0.83070743549E+01 0.80198381273E+01
 0.75851905466E+01 0.71005453843E+01 0.67873790355E+01 0.67873843298E+01 0.71005558594E+01
 0.75851950957E+01 0.80198326166E+01 0.81957729830E+01 0.79955680132E+01 0.74239144167E+01
 0.65849601878E+01 0.56268070016E+01 0.46857330216E+01 0.38556311198E+01 0.31868865458E+01
 0.26748369174E+01 0.22890223056E+01 0.20057394665E+01 0.18080658028E+01 0.16837201000E+01
 0.16239448957E+01 0.16239420450E+01 0.16837163027E+01 0.18080668702E+01 0.20057412609E+01
 0.22890173755E+01 0.26748308553E+01 0.31868965939E+01 0.38556626309E+01 0.46857650672E+01
 0.56268115108E+01 0.65849336676E+01 0.74238816778E+01 0.79955535898E+01 0.81957770824E+01
 0.68030329430E+01 0.59256125068E+01 0.52279419218E+01 0.49627700440E+01 0.52279365169E+01
 0.59256045689E+01 0.68030237024E+01 0.75548201950E+01 0.79377763707E+01 0.78466943100E+01
 0.73242957196E+01 0.65135366003E+01 0.55862864022E+01 0.46857629394E+01 0.39039731642E+01
 0.32884675956E+01 0.28278697043E+01 0.24876119382E+01 0.22430434953E+01 0.20783363738E+01
 0.19834871366E+01 0.19525534516E+01 0.19834871621E+01 0.20783363409E+01 0.22430426714E+01
 0.24876097674E+01 0.28278677969E+01 0.32884691119E+01 0.39039780739E+01 0.46857650672E+01
 0.55862788833E+01 0.65135211065E+01 0.73242828169E+01 0.78466926738E+01 0.79377844881E+01
 0.75548308312E+01 0.50147866149E+01 0.38531206368E+01 0.31601575423E+01 0.31601553073E+01
 0.38531096206E+01 0.50147650378E+01 0.62849820208E+01 0.73029421053E+01 0.78277660221E+01
 0.77952505074E+01 0.72978667419E+01 0.65135109268E+01 0.56268298083E+01 0.47788563352E+01
 0.40567651926E+01 0.35043681756E+01 0.30997595441E+01 0.28060369955E+01 0.25997044115E+01
 0.24677000124E+01 0.24032227948E+01 0.24032271604E+01 0.24677066176E+01 0.25997053410E+01
 0.28060363953E+01 0.30997633070E+01 0.35043672031E+01 0.40567452299E+01 0.47788238772E+01
 0.56268115108E+01 0.65135211065E+01 0.72978888121E+01 0.77952604731E+01 0.78277639808E+01
 0.73029470740E+01 0.62850016789E+01 0.27847794854E+01 0.15747881240E+01 0.11267939166E+01
 0.15747710275E+01 0.27847555480E+01 0.44061322898E+01 0.60021102736E+01 0.72005325521E+01
 0.78002103592E+01 0.77952676202E+01 0.73242830626E+01 0.65849275332E+01 0.57601779086E+01
 0.49825371788E+01 0.43358910112E+01 0.38579522100E+01 0.35140867893E+01 0.32683644324E+01
 0.31008892624E+01 0.30026571797E+01 0.29702073397E+01 0.30026536036E+01 0.31008887694E+01
 0.32683696245E+01 0.35140916367E+01 0.38579507966E+01 0.43358862688E+01 0.49825367847E+01
 0.57601838143E+01 0.65849336676E+01 0.73242828169E+01 0.77952604731E+01 0.78002014066E+01
 0.72005286605E+01 0.60021170021E+01 0.44061507804E+01 0.39129617118E+00 -.60397826224E+00
 -.60400759882E+00 0.39124204416E+00 0.21092062153E+01 0.41044066617E+01 0.59138504387E+01
 0.72005337186E+01 0.78277663036E+01 0.78467111738E+01 0.74239023488E+01 0.67568949637E+01
 0.60163680910E+01 0.53266640165E+01 0.47735215314E+01 0.43794782271E+01 0.41001181484E+01
 0.39039456606E+01 0.37765407139E+01 0.37132788448E+01 0.37132712721E+01 0.37765278366E+01
 0.39039415829E+01 0.41001217311E+01 0.43794823420E+01 0.47735314355E+01 0.53266877323E+01
 0.60163933651E+01 0.67568978746E+01 0.74238816778E+01 0.78466926738E+01 0.78277639808E+01
 0.72005286605E+01 0.59138261181E+01 0.41043869099E+01 0.21092282179E+01 -.17719182460E+01
 -.23298324569E+01 -.17719434529E+01 -.24233076776E+00 0.18782203938E+01 0.41044020609E+01
 0.60021357562E+01 0.73029503400E+01 0.79377713226E+01 0.79955396887E+01 0.76463623431E+01
 0.70727942423E+01 0.64319637896E+01 0.58468548302E+01 0.54056479102E+01 0.51019358695E+01
 0.48896743663E+01 0.47444320004E+01 0.46578660976E+01 0.46289189978E+01 0.46578672466E+01
 0.47444302500E+01 0.48896696635E+01 0.51019333449E+01 0.54056488228E+01 0.58468525525E+01
 0.64319535916E+01 0.70727831582E+01 0.76463628835E+01 0.79955535898E+01 0.79377844881E+01
 0.73029470740E+01 0.60021170021E+01 0.41043869099E+01 0.18782276121E+01 -.24230304154E+00
 -.32866080898E+01 -.32865913422E+01 -.21849296650E+01 -.24231668425E+00 0.21091836977E+01
 0.44061201369E+01 0.62850057514E+01 0.75548422533E+01 0.81957660111E+01 0.83070512400E+01
 0.80439080416E+01 0.75712865260E+01 0.70407519718E+01 0.65820088201E+01 0.62678066939E+01
 0.60586042169E+01 0.59153719024E+01 0.58217241700E+01 0.57744849464E+01 0.57744978694E+01
 0.58217464880E+01 0.59153776592E+01 0.60585907504E+01 0.62677878214E+01 0.65819882955E+01
 0.70407261896E+01 0.75712667004E+01 0.80439128180E+01 0.83070743549E+01 0.81957770824E+01
 0.75548308312E+01 0.62850016789E+01 0.44061507804E+01 0.21092282179E+01 -.24230304154E+00
 -.21849522528E+01 -.32865966558E+01 -.23298408608E+01 -.60398172980E+00 0.15747811770E+01
 0.38531000149E+01 0.59255921048E+01 0.75851995487E+01 0.87342030455E+01 0.93709585690E+01
 0.95698926563E+01 0.94613018657E+01 0.92077547576E+01 0.89743657647E+01 0.88604684136E+01
 0.88220985251E+01 0.88118531759E+01 0.88082814725E+01 0.88062312170E+01 0.88062171312E+01
 0.88082538073E+01 0.88118383909E+01 0.88221080811E+01 0.88604971960E+01 0.89744067948E+01
 0.92077992594E+01 0.94613289467E+01 0.95698800135E+01 0.93709115883E+01 0.87341589444E+01
 0.75851905466E+01 0.59256125068E+01 0.38531206368E+01 0.15747881240E+01 -.60397826224E+00
 -.23298324569E+01 -.32865913422E+01 -.23298408608E+01 -.11026393570E+01 0.71706619512E+00
 0.28565919534E+01 0.50346643349E+01 0.70104264784E+01 0.86106546364E+01 0.97418432168E+01
 0.10395800302E+02 0.10648473159E+02 0.10644276582E+02 0.10561775971E+02 0.10559989286E+02
 0.10649220691E+02 0.10761691290E+02 0.10856136717E+02 0.10915317555E+02 0.10935118120E+02
 0.10915287901E+02 0.10856058257E+02 0.10761588289E+02 0.10649174734E+02 0.10560057081E+02
 0.10561911829E+02 0.10644370494E+02 0.10648464863E+02 0.10395730110E+02 0.97417878652E+01
 0.86106416052E+01 0.70104276945E+01 0.50346525662E+01 0.28565744400E+01 0.71706394486E+00
 -.11026234462E+01 -.23298242631E+01 -.27636470342E+01 -.60398172980E+00 0.71706619512E+00
 0.24861753485E+01 0.44966793121E+01 0.65310399499E+01 0.83865205827E+01 0.99013460781E+01
 0.10983872320E+02 0.11636484897E+02 0.11958477166E+02 0.12117827640E+02 0.12297548808E+02
 0.12578942171E+02 0.12888182895E+02 0.13157833663E+02 0.13349803475E+02 0.13448074307E+02
 0.13448087319E+02 0.13349806838E+02 0.13157772920E+02 0.12888069625E+02 0.12578853960E+02
 0.12297543875E+02 0.12117885960E+02 0.11958536080E+02 0.11636510029E+02 0.10983873692E+02
 0.99013403522E+01 0.83865071976E+01 0.65310161281E+01 0.44966544839E+01 0.24861595312E+01
 0.71705748307E+00 -.60398870542E+00 -.13112235761E+01 -.13112202222E+01 0.15747811770E+01
 0.28565919534E+01 0.44966793121E+01 0.63454979913E+01 0.82223454789E+01 0.99395933945E+01
 0.11344742402E+02 0.12367172275E+02 0.13045185533E+02 0.13513733528E+02 0.13953076696E+02
 0.14494256674E+02 0.15080906905E+02 0.15615887369E+02 0.16031839234E+02 0.16291634390E+02
 0.16379572764E+02 0.16291719908E+02 0.16031928356E+02 0.15615869487E+02 0.15080741949E+02
 0.14494039472E+02 0.13952967425E+02 0.13513798021E+02 0.13045328780E+02 0.12367254269E+02
 0.11344730668E+02 0.99395617557E+01 0.82223468376E+01 0.63455031669E+01 0.44966508472E+01
 0.28565550416E+01 0.15747797154E+01 0.76089314579E+00 0.48200646418E+00 0.76087117496E+00
 0.38531000149E+01 0.50346643349E+01 0.65310399499E+01 0.82223454789E+01 0.99409113358E+01
 0.11511657405E+02 0.12811576133E+02 0.13818871055E+02 0.14622293213E+02 0.15380982045E+02
 0.16242888001E+02 0.17181777124E+02 0.18072631690E+02 0.18812395034E+02 0.19333462975E+02
 0.19600688335E+02 0.19600755631E+02 0.19333619059E+02 0.18812523320E+02 0.18072617131E+02
 0.17181606859E+02 0.16242682831E+02 0.15380892680E+02 0.14622353571E+02 0.13818978614E+02
 0.12811622093E+02 0.11511637662E+02 0.99408875646E+01 0.82223412562E+01 0.65310292958E+01
 0.50346432853E+01 0.38531034303E+01 0.30496282926E+01 0.26461611753E+01 0.26461385059E+01
 0.30495924548E+01 0.59255921048E+01 0.70104264784E+01 0.83865205827E+01 0.99395933945E+01
 0.11511657405E+02 0.12960149440E+02 0.14220461237E+02 0.15335783326E+02 0.16433854916E+02
 0.17656475311E+02 0.19001131388E+02 0.20322016806E+02 0.21477534798E+02 0.22361507253E+02
 0.22909727043E+02 0.23093820036E+02 0.22909872459E+02 0.22361758847E+02 0.21477777362E+02
 0.20322095448E+02 0.19000984467E+02 0.17656218417E+02 0.16433685614E+02 0.15335792821E+02
 0.14220567004E+02 0.12960214794E+02 0.11511637122E+02 0.99395416077E+01 0.83864945775E+01
 0.70104290618E+01 0.59255988822E+01 0.51761445884E+01 0.47491746754E+01 0.46121125142E+01
 0.47491769788E+01 0.51761445289E+01 0.75851995487E+01 0.86106546364E+01 0.99013460781E+01
 0.11344742402E+02 0.12811576133E+02 0.14220461237E+02 0.15581994907E+02 0.16993143272E+02
 0.18579104885E+02 0.20347711487E+02 0.22140132766E+02 0.23777856422E+02 0.25095163400E+02
 0.25972049952E+02 0.26397421368E+02 0.26397513692E+02 0.25972339408E+02 0.25095595466E+02
 0.23778214020E+02 0.22140177226E+02 0.20347438291E+02 0.18578770230E+02 0.16992999496E+02
 0.15582057912E+02 0.14220570251E+02 0.12811613259E+02 0.11344721687E+02 0.99013223157E+01
 0.86106356508E+01 0.75851681021E+01 0.68733935578E+01 0.64535755923E+01 0.62669974937E+01
 0.62670044263E+01 0.64535999842E+01 0.68734312954E+01 0.87342030455E+01 0.97418432168E+01
 0.10983872320E+02 0.12367172275E+02 0.13818871055E+02 0.15335783326E+02 0.16993143272E+02
 0.18899932665E+02 0.21064881653E+02 0.23324994351E+02 0.25466754359E+02 0.27219567849E+02
 0.28415128043E+02 0.29071113923E+02 0.29275125267E+02 0.29071297235E+02 0.28415482803E+02
 0.27220000106E+02 0.25467074863E+02 0.23325036982E+02 0.21064654046E+02 0.18899628058E+02
 0.16992978286E+02 0.15335818410E+02 0.13818992538E+02 0.12367237351E+02 0.10983846305E+02
 0.97417900072E+01 0.87341758214E+01 0.80177453918E+01 0.75836017290E+01 0.73704313870E+01
 0.73092554531E+01 0.73704679700E+01 0.75836355376E+01 0.80177607929E+01 0.93709585690E+01
 0.10395800302E+02 0.11636484897E+02 0.13045185533E+02 0.14622293213E+02 0.16433854916E+02
 0.18579104885E+02 0.21064881653E+02 0.23736519761E+02 0.26354669809E+02 0.28541726282E+02
 0.30054383957E+02 0.30914632522E+02 0.31279592286E+02 0.31279613757E+02 0.30914717649E+02
 0.30054595284E+02 0.28542100796E+02 0.26355080898E+02 0.23736691688E+02 0.21064666177E+02
 0.18578705428E+02 0.16433640061E+02 0.14622383331E+02 0.13045353052E+02 0.11636492216E+02
 0.10395691925E+02 0.93709253310E+01 0.86111238112E+01 0.81236586341E+01 0.78635576246E+01
 0.77597267042E+01 0.77597779603E+01 0.78636230564E+01 0.81236243570E+01 0.86110517469E+01
 0.95698926563E+01 0.10648473159E+02 0.11958477166E+02 0.13513733528E+02 0.15380982045E+02
 0.17656475311E+02 0.20347711487E+02 0.23324994351E+02 0.26354669809E+02 0.28987481193E+02