   2   2   0   0
  0.2779610E+02  0.4283936E-09  0.4283936E-09  0.4283936E-09  0.5000000E-15
  1.000000000000000E-004
  CAR 
 unknown system                          
     17.19072956     -9.56321978  301      3.13986641      1.00000000
     -9.563  0.0000E+00  0.0000E+00
     -9.474  0.0000E+00  0.0000E+00
     -9.385  0.0000E+00  0.0000E+00
     -9.296  0.0000E+00  0.0000E+00
     -9.207  0.0000E+00  0.0000E+00
     -9.117  0.0000E+00  0.0000E+00
     -9.028  0.0000E+00  0.0000E+00
     -8.939  0.0000E+00  0.0000E+00
     -8.850  0.0000E+00  0.0000E+00
     -8.761 -0.3055E-30 -0.2724E-31
     -8.671 -0.6441E-19 -0.5744E-20
     -8.582 -0.2070E-10 -0.1846E-11
     -8.493 -0.9556E-05 -0.8522E-06
     -8.404 -0.2217E-02 -0.1986E-03
     -8.315  0.6367E-01  0.5479E-02
     -8.226 -0.1504E-01  0.4138E-02
     -8.136  0.5292E+00  0.5133E-01
     -8.047  0.4199E+00  0.8877E-01
     -7.958 -0.3405E-01  0.8574E-01
     -7.869  0.5538E+00  0.1351E+00
     -7.780  0.1986E+00  0.1528E+00
     -7.690  0.1547E+01  0.2908E+00
     -7.601  0.6161E+00  0.3457E+00
     -7.512 -0.3075E-01  0.3430E+00
     -7.423  0.2750E+00  0.3675E+00
     -7.334  0.1182E+01  0.4729E+00
     -7.245  0.1927E+01  0.6447E+00
     -7.155  0.1187E+01  0.7505E+00
     -7.066  0.1082E+01  0.8471E+00
     -6.977  0.5580E+00  0.8968E+00
     -6.888  0.2768E+01  0.1144E+01
     -6.799  0.2614E+01  0.1377E+01
     -6.709  0.1078E+01  0.1473E+01
     -6.620  0.2421E+01  0.1689E+01
     -6.531  0.2008E+01  0.1868E+01
     -6.442  0.1535E+01  0.2005E+01
     -6.353 -0.5344E-01  0.2000E+01
     -6.264 -0.9574E-04  0.2000E+01
     -6.174 -0.1873E-09  0.2000E+01
     -6.085  0.0000E+00  0.2000E+01
     -5.996  0.0000E+00  0.2000E+01
     -5.907  0.0000E+00  0.2000E+01
     -5.818  0.0000E+00  0.2000E+01
     -5.728  0.0000E+00  0.2000E+01
     -5.639  0.0000E+00  0.2000E+01
     -5.550  0.0000E+00  0.2000E+01
     -5.461  0.0000E+00  0.2000E+01
     -5.372  0.0000E+00  0.2000E+01
     -5.283  0.0000E+00  0.2000E+01
     -5.193  0.0000E+00  0.2000E+01
     -5.104  0.0000E+00  0.2000E+01
     -5.015  0.0000E+00  0.2000E+01
     -4.926  0.0000E+00  0.2000E+01
     -4.837  0.0000E+00  0.2000E+01
     -4.748  0.0000E+00  0.2000E+01
     -4.658  0.0000E+00  0.2000E+01
     -4.569  0.0000E+00  0.2000E+01
     -4.480  0.0000E+00  0.2000E+01
     -4.391  0.0000E+00  0.2000E+01
     -4.302  0.0000E+00  0.2000E+01
     -4.212  0.0000E+00  0.2000E+01
     -4.123  0.0000E+00  0.2000E+01
     -4.034  0.0000E+00  0.2000E+01
     -3.945  0.0000E+00  0.2000E+01
     -3.856  0.0000E+00  0.2000E+01
     -3.767  0.0000E+00  0.2000E+01
     -3.677  0.0000E+00  0.2000E+01
     -3.588  0.0000E+00  0.2000E+01
     -3.499  0.0000E+00  0.2000E+01
     -3.410  0.0000E+00  0.2000E+01
     -3.321  0.0000E+00  0.2000E+01
     -3.231  0.0000E+00  0.2000E+01
     -3.142  0.0000E+00  0.2000E+01
     -3.053 -0.5710E-32  0.2000E+01
     -2.964 -0.4159E-20  0.2000E+01
     -2.875 -0.4698E-11  0.2000E+01
     -2.786 -0.8065E-05  0.2000E+01
     -2.696 -0.1440E-01  0.1999E+01
     -2.607  0.4295E+00  0.2037E+01
     -2.518  0.4960E+00  0.2081E+01
     -2.429  0.4512E+01  0.2484E+01
     -2.340  0.2584E+01  0.2714E+01
     -2.250  0.2763E+01  0.2961E+01
     -2.161  0.4418E+00  0.3000E+01
     -2.072  0.6308E+00  0.3056E+01
     -1.983  0.1415E+01  0.3182E+01
     -1.894  0.1758E+01  0.3339E+01
     -1.805  0.2412E-01  0.3341E+01
     -1.715 -0.2427E-02  0.3341E+01
     -1.626 -0.2475E-02  0.3341E+01
     -1.537  0.1554E+01  0.3479E+01
     -1.448  0.7491E+00  0.3546E+01
     -1.359  0.8663E+00  0.3623E+01
     -1.269 -0.2727E-01  0.3621E+01
     -1.180 -0.1516E-04  0.3621E+01
     -1.091 -0.1540E-01  0.3620E+01
     -1.002  0.4772E+00  0.3662E+01
     -0.913  0.4685E+00  0.3704E+01
     -0.824 -0.1499E-01  0.3703E+01
     -0.734 -0.9813E-05  0.3703E+01
     -0.645 -0.1951E-01  0.3701E+01
     -0.556  0.7106E+00  0.3764E+01
     -0.467  0.9064E+00  0.3845E+01
     -0.378 -0.2822E-01  0.3843E+01
     -0.289 -0.1258E-02  0.3842E+01
     -0.199  0.7323E-02  0.3843E+01
     -0.110  0.1910E+01  0.4013E+01
     -0.021  0.2818E+01  0.4265E+01
      0.068 -0.3043E-01  0.4262E+01
      0.157  0.1818E+00  0.4278E+01
      0.247  0.3925E+01  0.4628E+01
      0.336  0.1446E+01  0.4757E+01
      0.425 -0.5647E-01  0.4752E+01
      0.514 -0.2464E-01  0.4750E+01
      0.603  0.6743E+00  0.4810E+01
      0.692  0.4060E+01  0.5172E+01
      0.782  0.2199E+01  0.5368E+01
      0.871  0.1285E+01  0.5483E+01
      0.960  0.2060E+01  0.5667E+01
      1.049  0.1673E+01  0.5816E+01
      1.138  0.1421E+01  0.5943E+01
      1.228  0.3367E+01  0.6243E+01
      1.317  0.3354E+01  0.6542E+01
      1.406  0.4573E+00  0.6583E+01
      1.495  0.2266E-02  0.6583E+01
      1.584 -0.1049E-01  0.6582E+01
      1.673  0.4211E+01  0.6957E+01
      1.763  0.2494E+01  0.7180E+01
      1.852  0.1228E+01  0.7289E+01
      1.941  0.2070E+01  0.7474E+01
      2.030 -0.6421E-01  0.7468E+01
      2.119  0.3730E+00  0.7502E+01
      2.209  0.2400E+01  0.7716E+01
      2.298  0.2342E+00  0.7736E+01
      2.387  0.7366E+00  0.7802E+01
      2.476  0.1892E+00  0.7819E+01
      2.565  0.2721E+00  0.7843E+01
      2.654  0.1072E+01  0.7939E+01
      2.744  0.5153E-01  0.7943E+01
      2.833  0.5187E+00  0.7990E+01
      2.922 -0.1804E-01  0.7988E+01
      3.011  0.8885E-01  0.7996E+01
      3.100  0.4458E-01  0.8000E+01
      3.189  0.4103E-01  0.8004E+01
      3.279  0.2527E-01  0.8006E+01
      3.368 -0.6484E-03  0.8006E+01
      3.457 -0.6468E-07  0.8006E+01
      3.546 -0.7274E-14  0.8006E+01
      3.635  0.0000E+00  0.8006E+01
      3.725  0.0000E+00  0.8006E+01
      3.814 -0.7347E-36  0.8006E+01
      3.903 -0.3521E-23  0.8006E+01
      3.992 -0.2653E-13  0.8006E+01
      4.081 -0.3078E-06  0.8006E+01
      4.170 -0.4135E-02  0.8005E+01
      4.260  0.1694E+00  0.8021E+01
      4.349  0.4352E+00  0.8059E+01
      4.438  0.6007E+00  0.8113E+01
      4.527  0.3827E+00  0.8147E+01
      4.616 -0.1477E-01  0.8146E+01
      4.706 -0.1487E-04  0.8146E+01
      4.795 -0.9930E-02  0.8145E+01
      4.884  0.2810E+00  0.8170E+01
      4.973  0.1139E+00  0.8180E+01
      5.062  0.2460E+00  0.8202E+01
      5.151  0.1293E+01  0.8317E+01
      5.241  0.1115E+01  0.8417E+01
      5.330  0.3234E+01  0.8705E+01
      5.419  0.3111E+01  0.8983E+01
      5.508  0.2834E+01  0.9235E+01
      5.597  0.3449E+00  0.9266E+01
      5.687 -0.2983E-01  0.9263E+01
      5.776  0.6020E+00  0.9317E+01
      5.865  0.2028E+00  0.9335E+01
      5.954  0.4463E+00  0.9375E+01
      6.043  0.1246E+01  0.9486E+01
      6.132  0.1738E+01  0.9641E+01
      6.222  0.3258E+01  0.9932E+01
      6.311  0.2869E+01  0.1019E+02
      6.400  0.2827E+01  0.1044E+02
      6.489  0.3374E+00  0.1047E+02
      6.578  0.1813E+01  0.1063E+02
      6.668  0.1177E+01  0.1074E+02
      6.757 -0.1892E-01  0.1073E+02
      6.846  0.4416E-01  0.1074E+02
      6.935  0.2287E-01  0.1074E+02
      7.024 -0.6447E-03  0.1074E+02
      7.113 -0.3140E-01  0.1074E+02
      7.203  0.9213E+00  0.1082E+02
      7.292  0.2421E+01  0.1104E+02
      7.381  0.2896E+01  0.1129E+02
      7.470  0.1934E+00  0.1131E+02
      7.559  0.1575E+01  0.1145E+02
      7.648  0.2124E+01  0.1164E+02
      7.738  0.2227E+01  0.1184E+02
      7.827  0.2789E+01  0.1209E+02
      7.916  0.2133E+00  0.1211E+02
      8.005  0.8710E+00  0.1219E+02
      8.094  0.7143E+00  0.1225E+02
      8.184  0.2420E+01  0.1246E+02
      8.273  0.1167E+01  0.1257E+02
      8.362  0.1066E+01  0.1266E+02
      8.451  0.2131E+01  0.1285E+02
      8.540  0.2761E+01  0.1310E+02
      8.629  0.1874E+01  0.1327E+02
      8.719  0.3038E+01  0.1354E+02
      8.808  0.2572E+01  0.1377E+02
      8.897  0.9851E+00  0.1386E+02
      8.986  0.3171E+00  0.1388E+02
      9.075  0.2933E+00  0.1391E+02
      9.165  0.1939E+01  0.1408E+02
      9.254  0.8919E+00  0.1416E+02
      9.343  0.4558E+00  0.1420E+02
      9.432  0.8452E+00  0.1428E+02
      9.521  0.1811E+01  0.1444E+02
      9.610  0.1088E+01  0.1454E+02
      9.700  0.1011E+01  0.1463E+02
      9.789  0.1471E+01  0.1476E+02
      9.878  0.1688E+01  0.1491E+02
      9.967  0.1948E+01  0.1508E+02
     10.056  0.6608E+00  0.1514E+02
     10.146  0.2385E+01  0.1535E+02
     10.235  0.4958E+00  0.1540E+02
     10.324  0.2427E+01  0.1562E+02
     10.413  0.8074E+00  0.1569E+02
     10.502 -0.2127E-01  0.1569E+02
     10.591 -0.1900E-01  0.1568E+02
     10.681  0.7038E+00  0.1575E+02
     10.770  0.1337E+01  0.1587E+02
     10.859  0.7395E-02  0.1587E+02
     10.948 -0.8891E-02  0.1587E+02
     11.037  0.1886E+00  0.1588E+02
     11.127  0.1574E+01  0.1602E+02
     11.216  0.2299E+01  0.1623E+02
     11.305  0.5836E+00  0.1628E+02
     11.394  0.2536E+01  0.1651E+02
     11.483  0.2654E+01  0.1674E+02
     11.572  0.2333E+01  0.1695E+02
     11.662  0.4810E+00  0.1699E+02
     11.751  0.1452E+01  0.1712E+02
     11.840  0.2094E+01  0.1731E+02
     11.929  0.3109E+01  0.1759E+02
     12.018  0.3669E+01  0.1791E+02
     12.107  0.1492E+01  0.1805E+02
     12.197  0.1586E+01  0.1819E+02
     12.286  0.3757E+00  0.1822E+02
     12.375  0.8860E+00  0.1830E+02
     12.464  0.5642E+00  0.1835E+02
     12.553  0.1116E+01  0.1845E+02
     12.643  0.4611E-01  0.1845E+02
     12.732 -0.1675E-02  0.1845E+02
     12.821  0.9633E-02  0.1846E+02
     12.910  0.1946E+00  0.1847E+02
     12.999  0.1197E+01  0.1858E+02
     13.088  0.1494E+01  0.1871E+02
     13.178  0.1709E+01  0.1887E+02
     13.267  0.2039E+01  0.1905E+02
     13.356  0.1643E+01  0.1919E+02
     13.445  0.1877E+01  0.1936E+02
     13.534  0.1124E+00  0.1937E+02
     13.624  0.7266E+00  0.1944E+02
     13.713  0.2500E+01  0.1966E+02
     13.802  0.7087E+00  0.1972E+02
     13.891  0.9303E+00  0.1981E+02
     13.980  0.6653E+00  0.1986E+02
     14.069  0.1239E+00  0.1988E+02
     14.159  0.7159E+00  0.1994E+02
     14.248  0.1536E+01  0.2008E+02
     14.337  0.1229E+01  0.2019E+02
     14.426  0.5069E+00  0.2023E+02
     14.515  0.6145E+00  0.2029E+02
     14.605  0.8589E+00  0.2036E+02
     14.694  0.1074E+01  0.2046E+02
     14.783  0.5882E+00  0.2051E+02
     14.872  0.1483E+00  0.2052E+02
     14.961  0.6547E+00  0.2058E+02
     15.050  0.2546E-01  0.2058E+02
     15.140  0.2403E+00  0.2061E+02
     15.229  0.5534E+00  0.2066E+02
     15.318  0.1415E+00  0.2067E+02
     15.407 -0.1979E-01  0.2067E+02
     15.496  0.4506E+00  0.2071E+02
     15.585  0.8602E+00  0.2078E+02
     15.675  0.1007E+01  0.2087E+02
     15.764  0.3224E+00  0.2090E+02
     15.853  0.3281E+00  0.2093E+02
     15.942  0.3626E-01  0.2093E+02
     16.031  0.7647E+00  0.2100E+02
     16.121 -0.2661E-01  0.2100E+02
     16.210 -0.1147E-03  0.2100E+02
     16.299 -0.2484E-09  0.2100E+02
     16.388  0.0000E+00  0.2100E+02
     16.477  0.0000E+00  0.2100E+02
     16.566  0.0000E+00  0.2100E+02
     16.656  0.0000E+00  0.2100E+02
     16.745  0.0000E+00  0.2100E+02
     16.834  0.0000E+00  0.2100E+02
     16.923  0.0000E+00  0.2100E+02
     17.012  0.0000E+00  0.2100E+02
     17.102  0.0000E+00  0.2100E+02
     17.191  0.0000E+00  0.2100E+02
