   2   2   0   0
  0.2779610E+02  0.4283936E-09  0.4283936E-09  0.4283936E-09  0.5000000E-15
  1.000000000000000E-004
  CAR 
 unknown system                          
     35.92757602    -10.27085228  301      2.97097218      1.00000000
    -10.271  0.0000E+00  0.0000E+00
    -10.117  0.0000E+00  0.0000E+00
     -9.963  0.0000E+00  0.0000E+00
     -9.809  0.0000E+00  0.0000E+00
     -9.655  0.0000E+00  0.0000E+00
     -9.501  0.0000E+00  0.0000E+00
     -9.347  0.0000E+00  0.0000E+00
     -9.193  0.0000E+00  0.0000E+00
     -9.039  0.0000E+00  0.0000E+00
     -8.885  0.0000E+00  0.0000E+00
     -8.731  0.0000E+00  0.0000E+00
     -8.577 -0.3206E-29 -0.4937E-30
     -8.423 -0.7651E-12 -0.1178E-12
     -8.269 -0.5459E-03 -0.8407E-04
     -8.115  0.6269E-01  0.9570E-02
     -7.961 -0.1426E-01  0.7373E-02
     -7.807  0.7656E+00  0.1253E+00
     -7.653  0.8836E-01  0.1389E+00
     -7.499  0.4314E+00  0.2053E+00
     -7.345  0.2432E+00  0.2428E+00
     -7.191  0.2012E+01  0.5525E+00
     -7.037 -0.4062E-01  0.5463E+00
     -6.883  0.1799E+00  0.5740E+00
     -6.729  0.1928E+01  0.8709E+00
     -6.575  0.2873E+01  0.1313E+01
     -6.421 -0.9267E-01  0.1299E+01
     -6.267  0.3557E+01  0.1847E+01
     -6.113  0.6483E+00  0.1947E+01
     -5.959  0.3464E+00  0.2000E+01
     -5.805 -0.6636E-04  0.2000E+01
     -5.651  0.0000E+00  0.2000E+01
     -5.497  0.0000E+00  0.2000E+01
     -5.343  0.0000E+00  0.2000E+01
     -5.189  0.0000E+00  0.2000E+01
     -5.035  0.0000E+00  0.2000E+01
     -4.881  0.0000E+00  0.2000E+01
     -4.727  0.0000E+00  0.2000E+01
     -4.573  0.0000E+00  0.2000E+01
     -4.419  0.0000E+00  0.2000E+01
     -4.265  0.0000E+00  0.2000E+01
     -4.111  0.0000E+00  0.2000E+01
     -3.957  0.0000E+00  0.2000E+01
     -3.803  0.0000E+00  0.2000E+01
     -3.649  0.0000E+00  0.2000E+01
     -3.495  0.0000E+00  0.2000E+01
     -3.341  0.0000E+00  0.2000E+01
     -3.187 -0.1534E-30  0.2000E+01
     -3.033 -0.1776E-12  0.2000E+01
     -2.879 -0.6837E-03  0.2000E+01
     -2.725  0.1661E+00  0.2025E+01
     -2.571  0.8131E+00  0.2151E+01
     -2.417  0.3555E+01  0.2698E+01
     -2.263  0.1663E+01  0.2954E+01
     -2.109 -0.4872E-01  0.2947E+01
     -1.955  0.1848E+01  0.3231E+01
     -1.801  0.1084E+01  0.3398E+01
     -1.647 -0.1330E-01  0.3396E+01
     -1.493  0.8427E+00  0.3526E+01
     -1.339  0.1153E-01  0.3528E+01
     -1.185 -0.1165E-03  0.3528E+01
     -1.031  0.7866E+00  0.3649E+01
     -0.877  0.6566E+00  0.3750E+01
     -0.723 -0.6287E-04  0.3750E+01
     -0.569 -0.1941E-01  0.3747E+01
     -0.415  0.7456E+00  0.3862E+01
     -0.261 -0.6982E-02  0.3861E+01
     -0.107  0.6969E+00  0.3968E+01
      0.047  0.1488E-01  0.3970E+01
      0.201  0.1464E+01  0.4196E+01
      0.355  0.3811E+00  0.4254E+01
      0.509  0.3655E+01  0.4817E+01
      0.663  0.7920E+00  0.4939E+01
      0.817  0.1897E+01  0.5231E+01
      0.971  0.1689E+01  0.5492E+01
      1.125  0.2910E+01  0.5940E+01
      1.279  0.6779E+00  0.6044E+01
      1.433  0.2756E+01  0.6468E+01
      1.587  0.1585E+01  0.6713E+01
      1.741  0.2089E+01  0.7034E+01
      1.895  0.8306E+00  0.7162E+01
      2.049  0.1695E+01  0.7423E+01
      2.203  0.1175E+01  0.7604E+01
      2.357  0.7224E+00  0.7715E+01
      2.511  0.1021E+01  0.7873E+01
      2.665  0.2901E+00  0.7917E+01
      2.819  0.4172E+00  0.7981E+01
      2.973  0.1213E+00  0.8000E+01
      3.127 -0.9403E-03  0.8000E+01
      3.281  0.5623E-01  0.8009E+01
      3.435  0.3981E-02  0.8009E+01
      3.589 -0.6083E-07  0.8009E+01
      3.743  0.0000E+00  0.8009E+01
      3.897 -0.2911E-30  0.8009E+01
      4.051 -0.2951E-12  0.8009E+01
      4.205 -0.9872E-03  0.8009E+01
      4.359  0.2419E+00  0.8046E+01
      4.513  0.6696E+00  0.8149E+01
      4.667  0.2921E+00  0.8194E+01
      4.821 -0.6088E-04  0.8194E+01
      4.975  0.2638E-02  0.8195E+01
      5.129  0.1756E+00  0.8222E+01
      5.283  0.8001E+00  0.8345E+01
      5.437  0.2691E+01  0.8759E+01
      5.591  0.3694E+01  0.9328E+01
      5.745  0.9379E+00  0.9473E+01
      5.899  0.3586E+00  0.9528E+01
      6.053 -0.1520E-02  0.9528E+01
      6.207 -0.1849E-01  0.9525E+01
      6.361  0.9249E+00  0.9667E+01
      6.515  0.4903E+01  0.1042E+02
      6.669  0.3239E+00  0.1047E+02
      6.823  0.8695E+00  0.1061E+02
      6.977  0.2043E+01  0.1092E+02
      7.131 -0.2620E-01  0.1092E+02
      7.285  0.4843E-01  0.1092E+02
      7.439  0.8813E+00  0.1106E+02
      7.593  0.2848E+01  0.1150E+02
      7.747  0.4067E+00  0.1156E+02
      7.901  0.1956E+01  0.1186E+02
      8.055  0.8050E+00  0.1199E+02
      8.209  0.1779E+01  0.1226E+02
      8.363  0.1530E+01  0.1250E+02
      8.517  0.1250E+01  0.1269E+02
      8.671  0.1387E+01  0.1290E+02
      8.824  0.3438E+01  0.1343E+02
      8.978  0.8976E+00  0.1357E+02
      9.132  0.1033E+01  0.1373E+02
      9.286  0.1889E+01  0.1402E+02
      9.440  0.1462E+01  0.1424E+02
      9.594  0.3022E+00  0.1429E+02
      9.748  0.1509E+01  0.1452E+02
      9.902  0.6663E+00  0.1463E+02
     10.056  0.8747E+00  0.1476E+02
     10.210  0.1538E+01  0.1500E+02
     10.364  0.1281E+01  0.1519E+02
     10.518  0.1188E+01  0.1538E+02
     10.672  0.1851E+01  0.1566E+02
     10.826  0.1139E+01  0.1584E+02
     10.980  0.2347E+01  0.1620E+02
     11.134  0.2396E+01  0.1657E+02
     11.288  0.7478E+00  0.1668E+02
     11.442  0.1204E+01  0.1687E+02
     11.596  0.1034E+01  0.1703E+02
     11.750 -0.2326E-01  0.1702E+02
     11.904  0.2533E+01  0.1741E+02
     12.058  0.1265E+01  0.1761E+02
     12.212  0.1620E+01  0.1786E+02
     12.366  0.1708E+01  0.1812E+02
     12.520  0.1463E+01  0.1835E+02
     12.674  0.1348E+01  0.1856E+02
     12.828  0.1617E+01  0.1880E+02
     12.982  0.6886E-01  0.1881E+02
     13.136  0.2775E-01  0.1882E+02
     13.290  0.7578E+00  0.1894E+02
     13.444  0.3698E+01  0.1951E+02
     13.598  0.9978E+00  0.1966E+02
     13.752  0.5636E+00  0.1975E+02
     13.906  0.2562E+01  0.2014E+02
     14.060  0.2283E+01  0.2049E+02
     14.214  0.1804E+01  0.2077E+02
     14.368 -0.1430E-01  0.2077E+02
     14.522  0.1149E+01  0.2094E+02
     14.676  0.1742E+01  0.2121E+02
     14.830  0.7175E+00  0.2132E+02
     14.984  0.3263E+00  0.2137E+02
     15.138  0.1850E+01  0.2166E+02
     15.292  0.6046E+01  0.2259E+02
     15.446  0.2604E+01  0.2299E+02
     15.600  0.4423E+01  0.2367E+02
     15.754  0.2272E+01  0.2402E+02
     15.908  0.1641E+01  0.2427E+02
     16.062  0.1865E+01  0.2456E+02
     16.216  0.1410E+01  0.2478E+02
     16.370 -0.2315E-02  0.2478E+02
     16.524  0.2051E+01  0.2509E+02
     16.678  0.8182E-01  0.2511E+02
     16.832  0.1851E+01  0.2539E+02
     16.986  0.3436E+00  0.2544E+02
     17.140  0.1299E+01  0.2564E+02
     17.294  0.3242E+00  0.2569E+02
     17.448  0.3209E+00  0.2574E+02
     17.602  0.6939E+00  0.2585E+02
     17.756  0.2819E+01  0.2628E+02
     17.910  0.2739E+01  0.2671E+02
     18.064  0.2836E+01  0.2714E+02
     18.218  0.5503E+01  0.2799E+02
     18.372  0.3542E+01  0.2854E+02
     18.526  0.2442E+01  0.2891E+02
     18.680  0.1297E+01  0.2911E+02
     18.834  0.3980E+01  0.2972E+02
     18.988  0.1193E+01  0.2991E+02
     19.142  0.2023E+01  0.3022E+02
     19.296  0.8950E+00  0.3036E+02
     19.450  0.6579E+00  0.3046E+02
     19.604  0.2254E+01  0.3081E+02
     19.758  0.1862E+01  0.3109E+02
     19.912  0.3850E+01  0.3169E+02
     20.066  0.2549E+01  0.3208E+02
     20.220  0.1057E+01  0.3224E+02
     20.374  0.2124E+01  0.3257E+02
     20.528  0.8975E+00  0.3271E+02
     20.682  0.1748E+01  0.3298E+02
     20.836  0.1467E+01  0.3320E+02
     20.990  0.8480E+00  0.3333E+02
     21.144  0.1897E+01  0.3362E+02
     21.298  0.5513E+00  0.3371E+02
     21.452  0.3663E+01  0.3427E+02
     21.606  0.2235E+01  0.3462E+02
     21.760  0.7914E+00  0.3474E+02
     21.914  0.2416E+01  0.3511E+02
     22.068  0.5861E+01  0.3601E+02
     22.222  0.9275E+00  0.3616E+02
     22.376  0.1670E+01  0.3641E+02
     22.530  0.4600E+01  0.3712E+02
     22.684  0.2973E+01  0.3758E+02
     22.838  0.1218E+01  0.3777E+02
     22.992  0.2341E+01  0.3813E+02
     23.146  0.4074E+01  0.3876E+02
     23.300  0.3761E+01  0.3934E+02
     23.454  0.3605E+01  0.3989E+02
     23.608  0.1379E+01  0.4010E+02
     23.762 -0.3435E-01  0.4010E+02
     23.916  0.1909E+01  0.4039E+02
     24.070  0.2314E+01  0.4075E+02
     24.224  0.2203E+01  0.4109E+02
     24.378  0.1798E+01  0.4136E+02
     24.532  0.1645E+01  0.4162E+02
     24.686  0.6159E+00  0.4171E+02
     24.840  0.2804E+01  0.4214E+02
     24.994  0.2091E+01  0.4247E+02
     25.148  0.9848E+00  0.4262E+02
     25.302  0.5093E+01  0.4340E+02
     25.456  0.5599E-02  0.4340E+02
     25.610  0.2310E+01  0.4376E+02
     25.764  0.4045E+01  0.4438E+02
     25.918  0.3033E+01  0.4485E+02
     26.072  0.2888E+01  0.4529E+02
     26.226  0.3082E+01  0.4577E+02
     26.380  0.1986E+01  0.4607E+02
     26.534  0.3932E+01  0.4668E+02
     26.688  0.2985E+01  0.4714E+02
     26.842  0.2361E+01  0.4750E+02
     26.996  0.3535E+01  0.4805E+02
     27.150  0.2757E+01  0.4847E+02
     27.304  0.2109E+01  0.4880E+02
     27.458  0.2126E+01  0.4912E+02
     27.612  0.1267E+01  0.4932E+02
     27.766  0.1200E+01  0.4950E+02
     27.920  0.7260E+00  0.4962E+02
     28.074  0.2232E+01  0.4996E+02
     28.228  0.5538E+01  0.5081E+02
     28.382  0.2339E+01  0.5117E+02
     28.536  0.1718E+01  0.5144E+02
     28.690  0.3611E+01  0.5199E+02
     28.844  0.8157E+00  0.5212E+02
     28.998  0.1508E+01  0.5235E+02
     29.152  0.1075E+01  0.5252E+02
     29.306  0.1434E+01  0.5274E+02
     29.460  0.3558E+01  0.5328E+02
     29.614  0.2615E+01  0.5369E+02
     29.768  0.1242E+01  0.5388E+02
     29.922  0.3619E+01  0.5444E+02
     30.076  0.1798E+01  0.5471E+02
     30.230  0.6071E+00  0.5481E+02
     30.384  0.1183E+01  0.5499E+02
     30.538  0.1630E+01  0.5524E+02
     30.692  0.1011E+01  0.5540E+02
     30.846  0.8644E+00  0.5553E+02
     31.000  0.1753E+00  0.5556E+02
     31.154 -0.1508E-01  0.5555E+02
     31.308  0.9241E+00  0.5570E+02
     31.462  0.4714E+00  0.5577E+02
     31.616  0.1847E+00  0.5580E+02
     31.770  0.3154E+00  0.5585E+02
     31.924  0.3299E+00  0.5590E+02
     32.078  0.3179E+00  0.5594E+02
     32.232  0.2415E+00  0.5598E+02
     32.386 -0.3942E-02  0.5598E+02
     32.540 -0.1748E-09  0.5598E+02
     32.694  0.0000E+00  0.5598E+02
     32.848  0.0000E+00  0.5598E+02
     33.002 -0.3253E-29  0.5598E+02
     33.156 -0.5895E-12  0.5598E+02
     33.310 -0.3128E-03  0.5598E+02
     33.464  0.3940E-01  0.5599E+02
     33.618  0.5185E-01  0.5600E+02
     33.772 -0.1750E-02  0.5600E+02
     33.926  0.3134E-01  0.5600E+02
     34.080 -0.2730E-03  0.5600E+02
     34.234  0.0000E+00  0.5600E+02
     34.388  0.0000E+00  0.5600E+02
     34.542  0.0000E+00  0.5600E+02
     34.696  0.0000E+00  0.5600E+02
     34.850  0.0000E+00  0.5600E+02
     35.004  0.0000E+00  0.5600E+02
     35.158  0.0000E+00  0.5600E+02
     35.312  0.0000E+00  0.5600E+02
     35.466  0.0000E+00  0.5600E+02
     35.620  0.0000E+00  0.5600E+02
     35.774  0.0000E+00  0.5600E+02
     35.928  0.0000E+00  0.5600E+02
