   2   2   0   0
  0.2779610E+02  0.4283936E-09  0.4283936E-09  0.4283936E-09  0.5000000E-15
  1.000000000000000E-004
  CAR 
 unknown system                          
     35.92195519    -10.23735266  301      3.06947845      1.00000000
    -10.237  0.0000E+00  0.0000E+00
    -10.083  0.0000E+00  0.0000E+00
     -9.930  0.0000E+00  0.0000E+00
     -9.776  0.0000E+00  0.0000E+00
     -9.622  0.0000E+00  0.0000E+00
     -9.468  0.0000E+00  0.0000E+00
     -9.314  0.0000E+00  0.0000E+00
     -9.160  0.0000E+00  0.0000E+00
     -9.006  0.0000E+00  0.0000E+00
     -8.853  0.0000E+00  0.0000E+00
     -8.699  0.0000E+00  0.0000E+00
     -8.545 -0.3585E-29 -0.5516E-30
     -8.391 -0.7987E-12 -0.1229E-12
     -8.237 -0.5492E-03 -0.8451E-04
     -8.083  0.6274E-01  0.9569E-02
     -7.929 -0.1893E-01  0.6657E-02
     -7.776  0.7041E+00  0.1150E+00
     -7.622  0.1553E+00  0.1389E+00
     -7.468  0.1652E+00  0.1643E+00
     -7.314  0.5475E+00  0.2486E+00
     -7.160  0.1861E+01  0.5349E+00
     -7.006  0.7410E-01  0.5463E+00
     -6.852 -0.2962E-02  0.5458E+00
     -6.698  0.1786E+01  0.8206E+00
     -6.545  0.2640E+01  0.1227E+01
     -6.391  0.5123E+00  0.1306E+01
     -6.237  0.7478E+00  0.1421E+01
     -6.083  0.2855E+01  0.1860E+01
     -5.929  0.9326E+00  0.2003E+01
     -5.775 -0.2196E-01  0.2000E+01
     -5.621 -0.2013E-07  0.2000E+01
     -5.468  0.0000E+00  0.2000E+01
     -5.314  0.0000E+00  0.2000E+01
     -5.160  0.0000E+00  0.2000E+01
     -5.006  0.0000E+00  0.2000E+01
     -4.852  0.0000E+00  0.2000E+01
     -4.698  0.0000E+00  0.2000E+01
     -4.544  0.0000E+00  0.2000E+01
     -4.391  0.0000E+00  0.2000E+01
     -4.237  0.0000E+00  0.2000E+01
     -4.083  0.0000E+00  0.2000E+01
     -3.929  0.0000E+00  0.2000E+01
     -3.775  0.0000E+00  0.2000E+01
     -3.621  0.0000E+00  0.2000E+01
     -3.467  0.0000E+00  0.2000E+01
     -3.313 -0.4243E-50  0.2000E+01
     -3.160 -0.1202E-25  0.2000E+01
     -3.006 -0.1621E-09  0.2000E+01
     -2.852 -0.4916E-02  0.1999E+01
     -2.698  0.2770E+00  0.2042E+01
     -2.544  0.5819E+00  0.2131E+01
     -2.390  0.3843E+01  0.2723E+01
     -2.236  0.1520E+01  0.2957E+01
     -2.083 -0.3435E-01  0.2951E+01
     -1.929  0.1720E+01  0.3216E+01
     -1.775  0.1186E+01  0.3398E+01
     -1.621 -0.1169E-01  0.3397E+01
     -1.467  0.4916E+00  0.3472E+01
     -1.313  0.3613E+00  0.3528E+01
     -1.159 -0.1793E-03  0.3528E+01
     -1.005  0.9366E-01  0.3542E+01
     -0.852  0.1353E+01  0.3750E+01
     -0.698 -0.2157E-02  0.3750E+01
     -0.544 -0.9219E-02  0.3749E+01
     -0.390  0.7570E+00  0.3865E+01
     -0.236 -0.2560E-01  0.3861E+01
     -0.082 -0.3249E-02  0.3861E+01
      0.072  0.7133E+00  0.3970E+01
      0.225  0.7611E-01  0.3982E+01
      0.379  0.1381E+01  0.4195E+01
      0.533  0.4416E+00  0.4263E+01
      0.687  0.3812E+01  0.4849E+01
      0.841  0.8855E+00  0.4985E+01
      0.995  0.1515E+01  0.5219E+01
      1.149  0.1757E+01  0.5489E+01
      1.302  0.2862E+01  0.5929E+01
      1.456  0.7285E+00  0.6041E+01
      1.610  0.2808E+01  0.6473E+01
      1.764  0.1525E+01  0.6708E+01
      1.918  0.2465E+01  0.7087E+01
      2.072  0.5330E+00  0.7169E+01
      2.226  0.1859E+01  0.7455E+01
      2.380  0.1138E+01  0.7630E+01
      2.533  0.5145E+00  0.7710E+01
      2.687  0.1257E+01  0.7903E+01
      2.841  0.4946E+00  0.7979E+01
      2.995  0.2289E-01  0.7983E+01
      3.149  0.1130E+00  0.8000E+01
      3.303  0.6157E-01  0.8009E+01
      3.457 -0.1259E-02  0.8009E+01
      3.610 -0.5225E-08  0.8009E+01
      3.764  0.0000E+00  0.8009E+01
      3.918 -0.2768E-34  0.8009E+01
      4.072 -0.7907E-15  0.8009E+01
      4.226 -0.9044E-04  0.8009E+01
      4.380  0.1854E+00  0.8038E+01
      4.534  0.3049E+00  0.8085E+01
      4.687  0.7166E+00  0.8195E+01
      4.841 -0.3247E-02  0.8194E+01
      4.995 -0.1006E-03  0.8194E+01
      5.149  0.1446E+00  0.8217E+01
      5.303  0.5308E+00  0.8298E+01
      5.457  0.1928E+01  0.8595E+01
      5.611  0.3671E+01  0.9160E+01
      5.765  0.2020E+01  0.9471E+01
      5.918  0.3830E+00  0.9530E+01
      6.072 -0.1125E-01  0.9528E+01
      6.226 -0.1108E-01  0.9526E+01
      6.380  0.7786E+00  0.9646E+01
      6.534  0.4237E+01  0.1030E+02
      6.688  0.1019E+01  0.1045E+02
      6.842  0.1118E+00  0.1047E+02
      6.995  0.1469E+01  0.1070E+02
      7.149  0.1426E+01  0.1092E+02
      7.303 -0.3566E-02  0.1092E+02
      7.457  0.3863E+00  0.1098E+02
      7.611  0.1473E+01  0.1120E+02
      7.765  0.1851E+01  0.1149E+02
      7.919  0.1240E+01  0.1168E+02
      8.073  0.1230E+01  0.1187E+02
      8.226  0.8195E+00  0.1199E+02
      8.380  0.1206E+01  0.1218E+02
      8.534  0.1996E+01  0.1249E+02
      8.688  0.1246E+01  0.1268E+02
      8.842  0.1420E+01  0.1290E+02
      8.996  0.3347E+01  0.1341E+02
      9.150  0.1004E+01  0.1357E+02
      9.303  0.1508E+01  0.1380E+02
      9.457  0.1416E+01  0.1402E+02
      9.611  0.1454E+01  0.1424E+02
      9.765  0.8328E+00  0.1437E+02
      9.919  0.1192E+01  0.1455E+02
     10.073  0.6847E+00  0.1466E+02
     10.227  0.1072E+01  0.1482E+02
     10.380  0.2463E+01  0.1520E+02
     10.534  0.3985E+00  0.1526E+02
     10.688  0.9946E+00  0.1541E+02
     10.842  0.1634E+01  0.1567E+02
     10.996  0.1540E+01  0.1590E+02
     11.150  0.2375E+01  0.1627E+02
     11.304  0.2314E+01  0.1662E+02
     11.458  0.5435E+00  0.1671E+02
     11.611  0.2084E+01  0.1703E+02
     11.765 -0.2045E-01  0.1703E+02
     11.919  0.1802E+01  0.1730E+02
     12.073  0.1483E+01  0.1753E+02
     12.227  0.1113E+01  0.1770E+02
     12.381  0.1682E+01  0.1796E+02
     12.535  0.1975E+01  0.1827E+02
     12.688  0.7902E+00  0.1839E+02
     12.842  0.1437E+01  0.1861E+02
     12.996  0.1356E+01  0.1882E+02
     13.150  0.7749E-01  0.1883E+02
     13.304  0.3680E+00  0.1888E+02
     13.458  0.3652E+01  0.1945E+02
     13.612  0.1051E+01  0.1961E+02
     13.765  0.9206E+00  0.1975E+02
     13.919  0.1708E+01  0.2001E+02
     14.073  0.2623E+01  0.2042E+02
     14.227  0.8154E+00  0.2054E+02
     14.381  0.1469E+01  0.2077E+02
     14.535  0.1150E+01  0.2094E+02
     14.689  0.1676E+01  0.2120E+02
     14.843  0.7869E+00  0.2132E+02
     14.996  0.1761E+00  0.2135E+02
     15.150  0.3155E+00  0.2140E+02
     15.304  0.4631E+01  0.2211E+02
     15.458  0.3816E+01  0.2270E+02
     15.612  0.5596E+01  0.2356E+02
     15.766  0.2228E+01  0.2390E+02
     15.920  0.2267E+01  0.2425E+02
     16.073  0.1855E+01  0.2454E+02
     16.227  0.1075E+01  0.2470E+02
     16.381  0.4723E+00  0.2478E+02
     16.535  0.1807E+01  0.2505E+02
     16.689  0.3636E+00  0.2511E+02
     16.843  0.1906E+01  0.2540E+02
     16.997  0.2702E+00  0.2544E+02
     17.151  0.7152E+00  0.2555E+02
     17.304  0.9126E+00  0.2569E+02
     17.458  0.1922E+00  0.2572E+02
     17.612  0.2166E+00  0.2576E+02
     17.766  0.2562E+01  0.2615E+02
     17.920  0.2632E+01  0.2656E+02
     18.074  0.3564E+01  0.2711E+02
     18.228  0.4953E+01  0.2787E+02
     18.381  0.3626E+01  0.2842E+02
     18.535  0.2418E+01  0.2880E+02
     18.689  0.1998E+01  0.2910E+02
     18.843  0.4050E+01  0.2973E+02
     18.997  0.1079E+01  0.2989E+02
     19.151  0.2070E+01  0.3021E+02
     19.305  0.9684E+00  0.3036E+02
     19.458  0.3958E+00  0.3042E+02
     19.612  0.2155E+01  0.3075E+02
     19.766  0.1571E+01  0.3100E+02
     19.920  0.3678E+01  0.3156E+02
     20.074  0.3477E+01  0.3210E+02
     20.228  0.1219E+01  0.3228E+02
     20.382  0.1897E+01  0.3258E+02
     20.536  0.1007E+01  0.3273E+02
     20.689  0.1594E+01  0.3298E+02
     20.843  0.1526E+01  0.3321E+02
     20.997  0.7557E+00  0.3333E+02
     21.151  0.1880E+01  0.3362E+02
     21.305  0.4954E+00  0.3369E+02
     21.459  0.2817E+01  0.3413E+02
     21.613  0.2940E+01  0.3458E+02
     21.766  0.1067E+01  0.3474E+02
     21.920  0.1951E+01  0.3504E+02
     22.074  0.6161E+01  0.3599E+02
     22.228  0.9813E+00  0.3614E+02
     22.382  0.9597E+00  0.3629E+02
     22.536  0.5049E+01  0.3707E+02
     22.690  0.3205E+01  0.3756E+02
     22.843  0.1369E+01  0.3777E+02
     22.997  0.1806E+01  0.3805E+02
     23.151  0.4417E+01  0.3873E+02
     23.305  0.3383E+01  0.3925E+02
     23.459  0.4402E+01  0.3993E+02
     23.613  0.1150E+01  0.4010E+02
     23.767  0.4938E-01  0.4011E+02
     23.921  0.1914E+01  0.4040E+02
     24.074  0.1996E+01  0.4071E+02
     24.228  0.2166E+01  0.4104E+02
     24.382  0.1939E+01  0.4134E+02
     24.536  0.1614E+01  0.4159E+02
     24.690  0.5569E+00  0.4168E+02
     24.844  0.3028E+01  0.4214E+02
     24.998  0.2189E+01  0.4248E+02
     25.151  0.7841E+00  0.4260E+02
     25.305  0.5268E+01  0.4341E+02
     25.459 -0.5743E-01  0.4340E+02
     25.613  0.2370E+01  0.4377E+02
     25.767  0.3573E+01  0.4432E+02
     25.921  0.3310E+01  0.4483E+02
     26.075  0.2721E+01  0.4524E+02
     26.229  0.3179E+01  0.4573E+02
     26.382  0.2349E+01  0.4610E+02
     26.536  0.3633E+01  0.4665E+02
     26.690  0.3476E+01  0.4719E+02
     26.844  0.2092E+01  0.4751E+02
     26.998  0.3478E+01  0.4805E+02
     27.152  0.2774E+01  0.4847E+02
     27.306  0.2123E+01  0.4880E+02
     27.459  0.1272E+01  0.4900E+02
     27.613  0.1714E+01  0.4926E+02
     27.767  0.1353E+01  0.4947E+02
     27.921  0.8915E+00  0.4960E+02
     28.075  0.2181E+01  0.4994E+02
     28.229  0.5548E+01  0.5079E+02
     28.383  0.2461E+01  0.5117E+02
     28.536  0.1716E+01  0.5144E+02
     28.690  0.3205E+01  0.5193E+02
     28.844  0.1358E+01  0.5214E+02
     28.998  0.1460E+01  0.5236E+02
     29.152  0.1006E+01  0.5252E+02
     29.306  0.1219E+01  0.5271E+02
     29.460  0.3313E+01  0.5322E+02
     29.614  0.3049E+01  0.5368E+02
     29.767  0.1343E+01  0.5389E+02
     29.921  0.3235E+01  0.5439E+02
     30.075  0.2111E+01  0.5471E+02
     30.229  0.5052E+00  0.5479E+02
     30.383  0.1337E+01  0.5500E+02
     30.537  0.1531E+01  0.5523E+02
     30.691  0.9742E+00  0.5538E+02
     30.844  0.1058E+01  0.5555E+02
     30.998  0.6626E-01  0.5556E+02
     31.152 -0.8873E-02  0.5555E+02
     31.306  0.8108E+00  0.5568E+02
     31.460  0.5874E+00  0.5577E+02
     31.614  0.1742E+00  0.5580E+02
     31.768  0.3242E+00  0.5585E+02
     31.921  0.2343E+00  0.5588E+02
     32.075  0.4043E+00  0.5594E+02
     32.229  0.2469E+00  0.5598E+02
     32.383 -0.4953E-02  0.5598E+02
     32.537 -0.7654E-09  0.5598E+02
     32.691  0.0000E+00  0.5598E+02
     32.845  0.0000E+00  0.5598E+02
     32.999 -0.6944E-30  0.5598E+02
     33.152 -0.2232E-12  0.5598E+02
     33.306 -0.2279E-03  0.5598E+02
     33.460  0.3725E-01  0.5599E+02
     33.614  0.5407E-01  0.5600E+02
     33.768 -0.1834E-02  0.5600E+02
     33.922  0.3137E-01  0.5600E+02
     34.076 -0.2746E-03  0.5600E+02
     34.229  0.0000E+00  0.5600E+02
     34.383  0.0000E+00  0.5600E+02
     34.537  0.0000E+00  0.5600E+02
     34.691  0.0000E+00  0.5600E+02
     34.845  0.0000E+00  0.5600E+02
     34.999  0.0000E+00  0.5600E+02
     35.153  0.0000E+00  0.5600E+02
     35.306  0.0000E+00  0.5600E+02
     35.460  0.0000E+00  0.5600E+02
     35.614  0.0000E+00  0.5600E+02
     35.768  0.0000E+00  0.5600E+02
     35.922  0.0000E+00  0.5600E+02
