   2   2   0   0
  0.2779610E+02  0.4283936E-09  0.4283936E-09  0.4283936E-09  0.5000000E-15
  1.000000000000000E-004
  CAR 
 unknown system                          
     16.88523449     -9.50187915  301      2.98207699      1.00000000
     -9.502  0.0000E+00  0.0000E+00
     -9.414  0.0000E+00  0.0000E+00
     -9.326  0.0000E+00  0.0000E+00
     -9.238  0.0000E+00  0.0000E+00
     -9.150  0.0000E+00  0.0000E+00
     -9.062  0.0000E+00  0.0000E+00
     -8.974  0.0000E+00  0.0000E+00
     -8.886  0.0000E+00  0.0000E+00
     -8.798  0.0000E+00  0.0000E+00
     -8.710 -0.1967E-29 -0.1730E-30
     -8.622 -0.2025E-18 -0.1781E-19
     -8.534 -0.3775E-10 -0.3320E-11
     -8.446 -0.1201E-04 -0.1056E-05
     -8.358 -0.2208E-02 -0.1953E-03
     -8.270  0.6429E-01  0.5459E-02
     -8.183 -0.1494E-01  0.4145E-02
     -8.095  0.4983E+00  0.4797E-01
     -8.007  0.4621E+00  0.8862E-01
     -7.919 -0.2589E-01  0.8634E-01
     -7.831  0.4123E+00  0.1226E+00
     -7.743  0.3698E+00  0.1551E+00
     -7.655  0.1099E+01  0.2518E+00
     -7.567  0.1083E+01  0.3471E+00
     -7.479 -0.3937E-01  0.3436E+00
     -7.391  0.1586E+00  0.3575E+00
     -7.303  0.6950E+00  0.4187E+00
     -7.215  0.2032E+01  0.5974E+00
     -7.127  0.8982E+00  0.6764E+00
     -7.039  0.1970E+01  0.8497E+00
     -6.951 -0.9326E-01  0.8415E+00
     -6.863  0.2596E+01  0.1070E+01
     -6.775  0.1603E+01  0.1211E+01
     -6.687  0.3068E+01  0.1481E+01
     -6.599  0.5041E+00  0.1525E+01
     -6.511  0.2849E+01  0.1776E+01
     -6.423  0.2106E+01  0.1961E+01
     -6.335  0.4588E+00  0.2001E+01
     -6.247 -0.1343E-01  0.2000E+01
     -6.160 -0.2091E-05  0.2000E+01
     -6.072 -0.5780E-12  0.2000E+01
     -5.984  0.0000E+00  0.2000E+01
     -5.896  0.0000E+00  0.2000E+01
     -5.808  0.0000E+00  0.2000E+01
     -5.720  0.0000E+00  0.2000E+01
     -5.632  0.0000E+00  0.2000E+01
     -5.544  0.0000E+00  0.2000E+01
     -5.456  0.0000E+00  0.2000E+01
     -5.368  0.0000E+00  0.2000E+01
     -5.280  0.0000E+00  0.2000E+01
     -5.192  0.0000E+00  0.2000E+01
     -5.104  0.0000E+00  0.2000E+01
     -5.016  0.0000E+00  0.2000E+01
     -4.928  0.0000E+00  0.2000E+01
     -4.840  0.0000E+00  0.2000E+01
     -4.752  0.0000E+00  0.2000E+01
     -4.664  0.0000E+00  0.2000E+01
     -4.576  0.0000E+00  0.2000E+01
     -4.488  0.0000E+00  0.2000E+01
     -4.400  0.0000E+00  0.2000E+01
     -4.312  0.0000E+00  0.2000E+01
     -4.224  0.0000E+00  0.2000E+01
     -4.136  0.0000E+00  0.2000E+01
     -4.049  0.0000E+00  0.2000E+01
     -3.961  0.0000E+00  0.2000E+01
     -3.873  0.0000E+00  0.2000E+01
     -3.785  0.0000E+00  0.2000E+01
     -3.697  0.0000E+00  0.2000E+01
     -3.609  0.0000E+00  0.2000E+01
     -3.521  0.0000E+00  0.2000E+01
     -3.433  0.0000E+00  0.2000E+01
     -3.345  0.0000E+00  0.2000E+01
     -3.257  0.0000E+00  0.2000E+01
     -3.169  0.0000E+00  0.2000E+01
     -3.081 -0.2382E-31  0.2000E+01
     -2.993 -0.9281E-20  0.2000E+01
     -2.905 -0.6675E-11  0.2000E+01
     -2.817 -0.8721E-05  0.2000E+01
     -2.729 -0.1439E-01  0.1999E+01
     -2.641  0.4194E+00  0.2036E+01
     -2.553  0.4131E+00  0.2072E+01
     -2.465  0.4129E+01  0.2435E+01
     -2.377  0.3027E+01  0.2701E+01
     -2.289  0.2476E+01  0.2919E+01
     -2.201  0.8531E+00  0.2994E+01
     -2.113  0.6564E+00  0.3052E+01
     -2.026  0.9073E+00  0.3132E+01
     -1.938  0.2051E+01  0.3312E+01
     -1.850  0.3386E+00  0.3342E+01
     -1.762 -0.9213E-02  0.3341E+01
     -1.674 -0.4146E-01  0.3337E+01
     -1.586  0.1127E+01  0.3437E+01
     -1.498  0.5965E+00  0.3489E+01
     -1.410  0.1539E+01  0.3624E+01
     -1.322 -0.3909E-01  0.3621E+01
     -1.234 -0.4977E-03  0.3621E+01
     -1.146 -0.1084E-02  0.3621E+01
     -1.058  0.2412E-01  0.3623E+01
     -0.970  0.9047E+00  0.3703E+01
     -0.882  0.1008E-02  0.3703E+01
     -0.794 -0.6837E-03  0.3703E+01
     -0.706 -0.4679E-03  0.3703E+01
     -0.618 -0.4357E-01  0.3699E+01
     -0.530  0.1588E+01  0.3838E+01
     -0.442  0.4862E-01  0.3843E+01
     -0.354 -0.1919E-02  0.3843E+01
     -0.266 -0.2199E-01  0.3841E+01
     -0.178  0.6624E+00  0.3899E+01
     -0.090  0.2696E+01  0.4136E+01
     -0.003  0.1488E+01  0.4267E+01
      0.085 -0.1125E+00  0.4257E+01
      0.173  0.1824E+01  0.4417E+01
      0.261  0.3291E+01  0.4707E+01
      0.349  0.5319E+00  0.4754E+01
      0.437 -0.1771E-01  0.4752E+01
      0.525 -0.3942E-01  0.4749E+01
      0.613  0.1865E+01  0.4913E+01
      0.701  0.4227E+01  0.5284E+01
      0.789  0.1445E+01  0.5412E+01
      0.877  0.1482E+01  0.5542E+01
      0.965  0.2359E+01  0.5749E+01
      1.053  0.1097E+01  0.5846E+01
      1.141  0.1292E+01  0.5960E+01
      1.229  0.5285E+01  0.6424E+01
      1.317  0.1498E+01  0.6556E+01
      1.405  0.3199E+00  0.6584E+01
      1.493 -0.3929E-01  0.6581E+01
      1.581  0.8119E+00  0.6652E+01
      1.669  0.4208E+01  0.7022E+01
      1.757  0.2719E+01  0.7262E+01
      1.845  0.9883E+00  0.7348E+01
      1.933  0.1426E+01  0.7474E+01
      2.020 -0.8576E-01  0.7466E+01
      2.108  0.1328E+01  0.7583E+01
      2.196  0.1686E+01  0.7731E+01
      2.284  0.1256E+00  0.7743E+01
      2.372  0.8862E+00  0.7820E+01
      2.460 -0.4507E-01  0.7817E+01
      2.548  0.9008E+00  0.7896E+01
      2.636  0.4895E+00  0.7939E+01
      2.724  0.2971E+00  0.7965E+01
      2.812  0.2747E+00  0.7989E+01
      2.900 -0.7196E-02  0.7988E+01
      2.988  0.1339E+00  0.8000E+01
      3.076 -0.2749E-02  0.8000E+01
      3.164  0.1825E-02  0.8000E+01
      3.252  0.6629E-01  0.8006E+01
      3.340 -0.1775E-02  0.8006E+01
      3.428 -0.2018E-04  0.8006E+01
      3.516 -0.9185E-10  0.8006E+01
      3.604  0.0000E+00  0.8006E+01
      3.692  0.0000E+00  0.8006E+01
      3.780  0.0000E+00  0.8006E+01
      3.868 -0.8379E-29  0.8006E+01
      3.956 -0.9903E-18  0.8006E+01
      4.044 -0.2122E-09  0.8006E+01
      4.131 -0.7801E-04  0.8006E+01
      4.219 -0.1839E-01  0.8004E+01
      4.307  0.4878E+00  0.8047E+01
      4.395  0.5184E+00  0.8093E+01
      4.483  0.5328E+00  0.8140E+01
      4.571  0.7232E-01  0.8146E+01
      4.659 -0.1751E-02  0.8146E+01
      4.747 -0.8662E-04  0.8146E+01
      4.835 -0.1258E-01  0.8145E+01
      4.923  0.3871E+00  0.8179E+01
      5.011  0.1536E+00  0.8192E+01
      5.099  0.4033E+00  0.8228E+01
      5.187  0.1449E+01  0.8355E+01
      5.275  0.2013E+01  0.8532E+01
      5.363  0.3451E+01  0.8836E+01
      5.451  0.2953E+01  0.9095E+01
      5.539  0.1963E+01  0.9268E+01
      5.627 -0.3218E-01  0.9265E+01
      5.715  0.3564E-01  0.9268E+01
      5.803  0.7453E+00  0.9334E+01
      5.891  0.1871E+00  0.9350E+01
      5.979  0.4094E+00  0.9386E+01
      6.067  0.2263E+01  0.9585E+01
      6.154  0.1812E+01  0.9745E+01
      6.242  0.3299E+01  0.1004E+02
      6.330  0.2745E+01  0.1028E+02
      6.418  0.2094E+01  0.1046E+02
      6.506  0.1526E+00  0.1047E+02
      6.594  0.1782E+01  0.1063E+02
      6.682  0.1193E+01  0.1074E+02
      6.770 -0.1291E-01  0.1073E+02
      6.858  0.2014E-01  0.1074E+02
      6.946  0.4785E-01  0.1074E+02
      7.034 -0.1908E-02  0.1074E+02
      7.122 -0.2915E-01  0.1074E+02
      7.210  0.1007E+01  0.1083E+02
      7.298  0.2484E+01  0.1105E+02
      7.386  0.2833E+01  0.1129E+02
      7.474  0.3120E-01  0.1130E+02
      7.562  0.1817E+01  0.1146E+02
      7.650  0.2360E+01  0.1166E+02
      7.738  0.2380E+01  0.1187E+02
      7.826  0.2214E+01  0.1207E+02
      7.914  0.4188E+00  0.1211E+02
      8.002  0.5115E+00  0.1215E+02
      8.090  0.1304E+01  0.1226E+02
      8.177  0.1662E+01  0.1241E+02
      8.265  0.1673E+01  0.1256E+02
      8.353  0.1135E+01  0.1266E+02
      8.441  0.1621E+01  0.1280E+02
      8.529  0.3182E+01  0.1308E+02
      8.617  0.2029E+01  0.1326E+02
      8.705  0.2171E+01  0.1345E+02
      8.793  0.3455E+01  0.1375E+02
      8.881  0.1173E+01  0.1386E+02
      8.969  0.2358E+00  0.1388E+02
      9.057  0.2258E+00  0.1390E+02
      9.145  0.1754E+01  0.1405E+02
      9.233  0.1032E+01  0.1414E+02
      9.321  0.7070E+00  0.1420E+02
      9.409  0.4561E+00  0.1425E+02
      9.497  0.1650E+01  0.1439E+02
      9.585  0.1317E+01  0.1451E+02
      9.673  0.1034E+01  0.1460E+02
      9.761  0.1091E+01  0.1469E+02
      9.849  0.1761E+01  0.1485E+02
      9.937  0.2179E+01  0.1504E+02
     10.025  0.1282E+01  0.1515E+02
     10.113  0.1339E+01  0.1527E+02
     10.200  0.1580E+01  0.1541E+02
     10.288  0.6755E+00  0.1547E+02
     10.376  0.2552E+01  0.1569E+02
     10.464 -0.8781E-01  0.1569E+02
     10.552 -0.3975E-02  0.1568E+02
     10.640  0.7792E-01  0.1569E+02
     10.728  0.1771E+01  0.1585E+02
     10.816  0.2064E+00  0.1587E+02
     10.904  0.3486E-02  0.1587E+02
     10.992 -0.2850E-01  0.1586E+02
     11.080  0.9420E+00  0.1595E+02
     11.168  0.2049E+01  0.1613E+02
     11.256  0.1853E+01  0.1629E+02
     11.344  0.3788E+00  0.1632E+02
     11.432  0.3442E+01  0.1663E+02
     11.520  0.3146E+01  0.1690E+02
     11.608  0.1052E+01  0.1699E+02
     11.696  0.2722E+00  0.1702E+02
     11.784  0.2371E+01  0.1723E+02
     11.872  0.2432E+01  0.1744E+02
     11.960  0.3890E+01  0.1778E+02
     12.048  0.3296E+01  0.1807E+02
     12.136  0.7840E+00  0.1814E+02
     12.224  0.7608E+00  0.1821E+02
     12.311  0.9866E+00  0.1830E+02
     12.399  0.1926E+00  0.1831E+02
     12.487  0.7476E+00  0.1838E+02
     12.575  0.8857E+00  0.1846E+02
     12.663 -0.1845E-01  0.1845E+02
     12.751 -0.1901E-02  0.1845E+02
     12.839  0.3223E-01  0.1846E+02
     12.927  0.6151E+00  0.1851E+02
     13.015  0.1859E+01  0.1868E+02
     13.103  0.2892E+01  0.1893E+02
     13.191  0.9648E+00  0.1901E+02
     13.279  0.1984E+01  0.1919E+02
     13.367  0.1744E+01  0.1934E+02
     13.455  0.1125E+01  0.1944E+02
     13.543  0.1468E+01  0.1957E+02
     13.631 -0.1378E-02  0.1957E+02
     13.719  0.1684E+01  0.1972E+02
     13.807  0.1148E+01  0.1982E+02
     13.895  0.1249E+01  0.1993E+02
     13.983  0.1043E+01  0.2002E+02
     14.071 -0.1191E-01  0.2002E+02
     14.159  0.2165E+00  0.2004E+02
     14.247  0.1324E+01  0.2016E+02
     14.334  0.8659E+00  0.2023E+02
     14.422  0.4475E+00  0.2027E+02
     14.510  0.1961E+01  0.2044E+02
     14.598  0.1592E+01  0.2058E+02
     14.686  0.3688E+00  0.2062E+02
     14.774 -0.7576E-02  0.2062E+02
     14.862  0.3836E-01  0.2062E+02
     14.950  0.1908E+00  0.2064E+02
     15.038  0.7854E+00  0.2070E+02
     15.126  0.7960E-01  0.2071E+02
     15.214  0.7096E+00  0.2077E+02
     15.302  0.3358E+00  0.2080E+02
     15.390  0.1244E+01  0.2091E+02
     15.478  0.2250E+00  0.2093E+02
     15.566  0.5903E+00  0.2098E+02
     15.654 -0.9295E-02  0.2098E+02
     15.742  0.1930E+00  0.2100E+02
     15.830 -0.6625E-02  0.2100E+02
     15.918 -0.3603E-04  0.2100E+02
     16.006 -0.1132E-09  0.2100E+02
     16.094  0.0000E+00  0.2100E+02
     16.182  0.0000E+00  0.2100E+02
     16.270  0.0000E+00  0.2100E+02
     16.357  0.0000E+00  0.2100E+02
     16.445  0.0000E+00  0.2100E+02
     16.533  0.0000E+00  0.2100E+02
     16.621  0.0000E+00  0.2100E+02
     16.709  0.0000E+00  0.2100E+02
     16.797  0.0000E+00  0.2100E+02
     16.885  0.0000E+00  0.2100E+02
