    2    2    1    1
  0.2779610E+02  0.4283936E-09  0.4283936E-09  0.4283936E-09  0.5000000E-15
  1.000000000000000E-004
  CAR 
 unknown system                          
      8     22     56
 
  0.0000000E+00  0.0000000E+00  0.0000000E+00  0.4629630E-02
    1       -8.139202   1.000000
    2       -8.139202   1.000000
    3        2.759134   1.000000
    4        2.759134   1.000000
    5        3.027384   1.000028
    6        3.027384   1.000006
    7        3.027384   0.999995
    8        3.027385   0.999972
    9        3.254529  -0.000001
   10        3.254531  -0.000001
   11        7.550712   0.000000
   12        7.550712   0.000000
   13        8.069006   0.000000
   14        8.069006   0.000000
   15        8.069006   0.000000
   16        8.069007   0.000000
   17       10.710073   0.000000
   18       10.710073   0.000000
   19       12.859683   0.000000
   20       12.859683   0.000000
   21       12.859683   0.000000
   22       12.859683   0.000000
   23       13.617782   0.000000
   24       13.617782   0.000000
   25       13.654203   0.000000
   26       13.654203   0.000000
   27       13.654203   0.000000
   28       13.654203   0.000000
   29       16.158163   0.000000
   30       16.158163   0.000000
   31       24.397963   0.000000
   32       24.397966   0.000000
   33       24.397967   0.000000
   34       24.397968   0.000000
   35       24.563370   0.000000
   36       24.563371   0.000000
   37       25.783008   0.000000
   38       25.783009   0.000000
   39       25.783009   0.000000
   40       25.783009   0.000000
   41       25.882723   0.000000
   42       25.882728   0.000000
   43       25.882739   0.000000
   44       25.882744   0.000000
   45       25.882744   0.000000
   46       25.882745   0.000000
   47       25.888893   0.000000
   48       25.888893   0.000000
   49       26.362805   0.000000
   50       26.362805   0.000000
   51       26.362805   0.000000
   52       26.362807   0.000000
   53       33.407109   0.000000
   54       33.477491   0.000000
   55       33.538345   0.000000
   56       33.823805   0.000000
 
  0.1666667E+00  0.0000000E+00  0.0000000E+00  0.1851852E-01
    1       -7.870593   1.000000
    2       -7.870593   1.000000
    3        0.749163   1.000000
    4        0.749163   1.000000
    5        2.615781   1.000000
    6        2.615781   1.000000
    7        2.800878   1.000000
    8        2.808996   1.000000
    9        4.584818   0.000000
   10        4.584819   0.000000
   11        7.742242   0.000000
   12        7.742242   0.000000
   13        8.146740   0.000000
   14        8.146740   0.000000
   15        8.411865   0.000000
   16        8.412459   0.000000
   17       11.804091   0.000000
   18       11.834437   0.000000
   19       11.834437   0.000000
   20       11.876069   0.000000
   21       11.901103   0.000000
   22       11.901103   0.000000
   23       13.345517   0.000000
   24       13.345517   0.000000
   25       15.653971   0.000000
   26       15.666855   0.000000
   27       15.666855   0.000000
   28       15.731683   0.000000
   29       18.108638   0.000000
   30       18.108638   0.000000
   31       21.363543   0.000000
   32       21.363543   0.000000
   33       21.497189   0.000000
   34       21.545012   0.000000
   35       21.922527   0.000000
   36       21.922527   0.000000
   37       25.006645   0.000000
   38       25.092670   0.000000
   39       25.248994   0.000000
   40       25.248996   0.000000
   41       26.105869   0.000000
   42       26.105870   0.000000
   43       26.113835   0.000000
   44       26.113840   0.000000
   45       26.307913   0.000000
   46       26.331090   0.000000
   47       27.232352   0.000000
   48       27.232354   0.000000
   49       29.802659   0.000000
   50       29.804208   0.000000
   51       29.874325   0.000000
   52       29.915610   0.000000
   53       30.662478   0.000000
   54       30.685077   0.000000
   55       31.987207   0.000000
   56       32.164968   0.000000
 
  0.3333333E+00  0.0000000E+00  0.0000000E+00  0.1851852E-01
    1       -7.176861   1.000000
    2       -7.176861   1.000000
    3       -1.450263   1.000000
    4       -1.450263   1.000000
    5        2.234748   1.000000
    6        2.234748   1.000000
    7        2.435371   1.000000
    8        2.442251   1.000000
    9        4.530925   0.000000
   10        4.530925   0.000000
   11        8.315976   0.000000
   12        8.315976   0.000000
   13        8.556437   0.000000
   14        8.556582   0.000000
   15        9.235118   0.000000
   16        9.235118   0.000000
   17       11.418124   0.000000
   18       11.418124   0.000000
   19       12.338819   0.000000
   20       12.338819   0.000000
   21       12.389587   0.000000
   22       12.454771   0.000000
   23       16.305100   0.000000
   24       16.305100   0.000000
   25       17.725394   0.000000
   26       17.725395   0.000000
   27       17.807138   0.000000
   28       17.900660   0.000000
   29       18.529317   0.000000
   30       18.529317   0.000000
   31       18.786722   0.000000
   32       18.786723   0.000000
   33       18.800663   0.000000
   34       18.835429   0.000000
   35       21.794505   0.000000
   36       21.794505   0.000000
   37       25.016674   0.000000
   38       25.203562   0.000000
   39       25.240112   0.000000
   40       25.240119   0.000000
   41       25.607248   0.000000
   42       25.607250   0.000000
   43       26.420603   0.000000
   44       26.433840   0.000000
   45       26.433855   0.000000
   46       26.517678   0.000000
   47       26.652174   0.000000
   48       26.652201   0.000000
   49       27.553386   0.000000
   50       27.553574   0.000000
   51       27.661216   0.000000
   52       27.669951   0.000000
   53       29.076529   0.000000
   54       29.077967   0.000000
   55       31.243782   0.000000
   56       31.410870   0.000000
 
  0.5000000E+00  0.0000000E+00  0.0000000E+00  0.1851852E-01
    1       -6.672628   1.000000
    2       -6.672628   1.000000
    3       -2.499254   1.000000
    4       -2.499254   1.000000
    5        2.073389   1.000000
    6        2.073389   1.000000
    7        2.282779   1.000000
    8        2.282779   1.000000
    9        4.362769  -0.000000
   10        4.362769  -0.000000
   11        8.237867   0.000000
   12        8.237867   0.000000
   13        8.425878   0.000000
   14        8.425878   0.000000
   15        9.894766   0.000000
   16        9.894766   0.000000
   17       12.060570   0.000000
   18       12.060570   0.000000
   19       14.073059   0.000000
   20       14.073059   0.000000
   21       14.266613   0.000000
   22       14.266613   0.000000
   23       15.174161   0.000000
   24       15.174161   0.000000
   25       15.257726   0.000000
   26       15.257727   0.000000
   27       15.438887   0.000000
   28       15.438887   0.000000
   29       20.947925   0.000000
   30       20.947925   0.000000
   31       21.847027   0.000000
   32       21.847027   0.000000
   33       21.980988   0.000000
   34       21.980989   0.000000
   35       22.008108   0.000000
   36       22.008108   0.000000
   37       22.721739   0.000000
   38       22.721739   0.000000
   39       22.741350   0.000000
   40       22.741350   0.000000
   41       25.294385   0.000000
   42       25.294387   0.000000
   43       26.043110   0.000000
   44       26.043120   0.000000
   45       26.254751   0.000000
   46       26.254807   0.000000
   47       26.814292   0.000000
   48       26.814340   0.000000
   49       26.962553   0.000000
   50       26.962659   0.000000
   51       27.008729   0.000000
   52       27.009340   0.000000
   53       27.087558   0.000000
   54       27.087742   0.000000
   55       30.450957   0.000000
   56       30.590645   0.000000
 
 -0.3333333E+00  0.0000000E+00  0.0000000E+00  0.1851852E-01
    1       -7.176861   1.000000
    2       -7.176861   1.000000
    3       -1.450263   1.000000
    4       -1.450263   1.000000
    5        2.234748   1.000000
    6        2.234748   1.000000
    7        2.435371   1.000000
    8        2.442251   1.000000
    9        4.530925   0.000000
   10        4.530925   0.000000
   11        8.315976   0.000000
   12        8.315976   0.000000
   13        8.556438   0.000000
   14        8.556582   0.000000
   15        9.235118   0.000000
   16        9.235118   0.000000
   17       11.418124   0.000000
   18       11.418124   0.000000
   19       12.338818   0.000000
   20       12.338818   0.000000
   21       12.389588   0.000000
   22       12.454772   0.000000
   23       16.305100   0.000000
   24       16.305100   0.000000
   25       17.725395   0.000000
   26       17.725396   0.000000
   27       17.807137   0.000000
   28       17.900659   0.000000
   29       18.529316   0.000000
   30       18.529317   0.000000
   31       18.786724   0.000000
   32       18.786724   0.000000
   33       18.800662   0.000000
   34       18.835428   0.000000
   35       21.794505   0.000000
   36       21.794505   0.000000
   37       25.016675   0.000000
   38       25.203558   0.000000
   39       25.240113   0.000000
   40       25.240120   0.000000
   41       25.607247   0.000000
   42       25.607248   0.000000
   43       26.420542   0.000000
   44       26.433844   0.000000
   45       26.433849   0.000000
   46       26.517674   0.000000
   47       26.652172   0.000000
   48       26.652205   0.000000
   49       27.553436   0.000000
   50       27.553452   0.000000
   51       27.661172   0.000000
   52       27.669989   0.000000
   53       29.076541   0.000000
   54       29.079779   0.000000
   55       31.225200   0.000000
   56       31.334425   0.000000
 
 -0.1666667E+00  0.0000000E+00  0.0000000E+00  0.1851852E-01
    1       -7.870593   1.000000
    2       -7.870593   1.000000
    3        0.749163   1.000000
    4        0.749163   1.000000
    5        2.615781   1.000000
    6        2.615781   1.000000
    7        2.800878   1.000000
    8        2.808996   1.000000
    9        4.584818   0.000000
   10        4.584818   0.000000
   11        7.742243   0.000000
   12        7.742243   0.000000
   13        8.146739   0.000000
   14        8.146739   0.000000
   15        8.411866   0.000000
   16        8.412459   0.000000
   17       11.804091   0.000000
   18       11.834436   0.000000
   19       11.834436   0.000000
   20       11.876070   0.000000
   21       11.901102   0.000000
   22       11.901103   0.000000
   23       13.345517   0.000000
   24       13.345517   0.000000
   25       15.653970   0.000000
   26       15.666856   0.000000
   27       15.666856   0.000000
   28       15.731682   0.000000
   29       18.108638   0.000000
   30       18.108638   0.000000
   31       21.363544   0.000000
   32       21.363545   0.000000
   33       21.497188   0.000000
   34       21.545011   0.000000
   35       21.922526   0.000000
   36       21.922527   0.000000
   37       25.006643   0.000000
   38       25.092671   0.000000
   39       25.248995   0.000000
   40       25.248997   0.000000
   41       26.105867   0.000000
   42       26.105884   0.000000
   43       26.113831   0.000000
   44       26.113835   0.000000
   45       26.307918   0.000000
   46       26.331088   0.000000
   47       27.232353   0.000000
   48       27.232359   0.000000
   49       29.803558   0.000000
   50       29.808924   0.000000
   51       29.872827   0.000000
   52       29.917233   0.000000
   53       30.661511   0.000000
   54       30.672339   0.000000
   55       32.030716   0.000000
   56       32.125418   0.000000
 
  0.1666667E+00  0.1666667E+00  0.0000000E+00  0.2777778E-01
    1       -7.778811   1.000000
    2       -7.778811   1.000000
    3        0.675601   1.000000
    4        0.675601   1.000000
    5        2.248896   1.000000
    6        2.248896   1.000000
    7        2.353146   1.000000
    8        2.353146   1.000000
    9        5.293155   0.000000
   10        5.293155   0.000000
   11        6.676792   0.000000
   12        6.676792   0.000000
   13        8.786944   0.000000
   14        8.786945   0.000000
   15        9.045526   0.000000
   16        9.045526   0.000000
   17       10.359500   0.000000
   18       10.359500   0.000000
   19       12.859084   0.000000
   20       12.859084   0.000000
   21       13.166161   0.000000
   22       13.166161   0.000000
   23       14.464405   0.000000
   24       14.464406   0.000000
   25       14.507407   0.000000
   26       14.507407   0.000000
   27       15.161127   0.000000
   28       15.161127   0.000000
   29       19.210753   0.000000
   30       19.210753   0.000000
   31       21.123059   0.000000
   32       21.123059   0.000000
   33       21.319875   0.000000
   34       21.319875   0.000000
   35       21.876048   0.000000
   36       21.876048   0.000000
   37       22.676745   0.000000
   38       22.676745   0.000000
   39       25.176845   0.000000
   40       25.176850   0.000000
   41       25.829852   0.000000
   42       25.829870   0.000000
   43       26.010340   0.000000
   44       26.010358   0.000000
   45       27.130736   0.000000
   46       27.130816   0.000000
   47       29.383568   0.000000
   48       29.397305   0.000000
   49       29.475780   0.000000
   50       29.496231   0.000000
   51       30.237926   0.000000
   52       30.270828   0.000000
   53       30.308793   0.000000
   54       30.346400   0.000000
   55       31.247642   0.000000
   56       31.910877   0.000000
 
  0.3333333E+00  0.1666667E+00  0.0000000E+00  0.5555556E-01
    1       -7.212964   1.000000
    2       -7.208841   1.000000
    3       -0.973910   1.000000
    4       -0.973558   1.000000
    5        1.645791   1.000000
    6        1.677433   1.000000
    7        1.907223   1.000000
    8        1.908721   1.000000
    9        5.601115   0.000000
   10        5.636078   0.000000
   11        6.965852   0.000000
   12        7.020521   0.000000
   13        8.846080   0.000000
   14        8.883981   0.000000
   15        9.461109   0.000000
   16        9.472223   0.000000
   17       11.194867   0.000000
   18       11.209909   0.000000
   19       13.324344   0.000000
   20       13.357237   0.000000
   21       13.385435   0.000000
   22       13.422143   0.000000
   23       15.722825   0.000000
   24       15.752712   0.000000
   25       16.730178   0.000000
   26       16.775171   0.000000
   27       17.774546   0.000000
   28       17.780381   0.000000
   29       17.979749   0.000000
   30       18.026344   0.000000
   31       18.136295   0.000000
   32       18.138484   0.000000
   33       21.467577   0.000000
   34       21.596310   0.000000
   35       22.006355   0.000000
   36       22.053371   0.000000
   37       22.397587   0.000000
   38       22.404622   0.000000
   39       23.137075   0.000000
   40       23.159388   0.000000
   41       25.597124   0.000000
   42       25.642123   0.000000
   43       25.975924   0.000000
   44       25.987039   0.000000
   45       26.663738   0.000000
   46       26.664456   0.000000
   47       28.112312   0.000000
   48       28.181135   0.000000
   49       28.605079   0.000000
   50       28.618645   0.000000
   51       29.478573   0.000000
   52       29.491396   0.000000
   53       29.868087   0.000000
   54       30.054640   0.000000
   55       30.217514   0.000000
   56       30.514257   0.000000
 
  0.5000000E+00  0.1666667E+00  0.0000000E+00  0.5555556E-01
    1       -6.557957   1.000000
    2       -6.545053   1.000000
    3       -2.337945   1.000000
    4       -2.321023   1.000000
    5        1.039812   1.000000
    6        1.065782   1.000000
    7        1.831686   1.000000
    8        1.835655   1.000000
    9        5.500679   0.000000
   10        5.518714   0.000000
   11        7.614954   0.000000
   12        7.656873   0.000000
   13        9.155139   0.000000
   14        9.169069   0.000000
   15        9.705649   0.000000
   16        9.790690   0.000000
   17       12.108433   0.000000
   18       12.225487   0.000000
   19       13.592605   0.000000
   20       13.635243   0.000000
   21       14.239242   0.000000
   22       14.272176   0.000000
   23       15.252577   0.000000
   24       15.321740   0.000000
   25       15.553493   0.000000
   26       15.584102   0.000000
   27       18.414641   0.000000
   28       18.555989   0.000000
   29       19.856169   0.000000
   30       19.912910   0.000000
   31       20.033044   0.000000
   32       20.076724   0.000000
   33       21.046957   0.000000
   34       21.051276   0.000000
   35       22.019894   0.000000
   36       22.046260   0.000000
   37       22.508407   0.000000
   38       22.568279   0.000000
   39       23.412895   0.000000
   40       23.415412   0.000000
   41       24.226880   0.000000
   42       24.365634   0.000000
   43       25.203983   0.000000
   44       25.238199   0.000000
   45       25.852770   0.000000
   46       25.857175   0.000000
   47       26.353428   0.000000
   48       26.418790   0.000000
   49       26.926627   0.000000
   50       27.045646   0.000000
   51       28.165445   0.000000
   52       28.245844   0.000000
   53       28.498150   0.000000
   54       28.596597   0.000000
   55       29.300457   0.000000
   56       29.983408   0.000000
 
 -0.3333333E+00  0.1666667E+00  0.0000000E+00  0.5555556E-01
    1       -6.743211   1.000000
    2       -6.731761   1.000000
    3       -1.994072   1.000000
    4       -1.977797   1.000000
    5        0.901638   1.000000
    6        0.921350   1.000000
    7        2.145002   1.000000
    8        2.152637   1.000000
    9        5.581350   0.000000
   10        5.611908   0.000000
   11        7.898600   0.000000
   12        7.930365   0.000000
   13        8.863769   0.000000
   14        8.874741   0.000000
   15        9.405001   0.000000
   16        9.472677   0.000000
   17       11.919776   0.000000
   18       11.944897   0.000000
   19       12.748067   0.000000
   20       12.860809   0.000000
   21       13.907889   0.000000
   22       14.005530   0.000000
   23       15.251954   0.000000
   24       15.360458   0.000000
   25       17.144418   0.000000
   26       17.175846   0.000000
   27       18.243384   0.000000
   28       18.268628   0.000000
   29       18.448616   0.000000
   30       18.514129   0.000000
   31       19.784996   0.000000
   32       19.807537   0.000000
   33       21.300512   0.000000
   34       21.353836   0.000000
   35       22.544733   0.000000
   36       22.575234   0.000000
   37       22.773921   0.000000
   38       22.946974   0.000000
   39       23.833977   0.000000
   40       23.956868   0.000000
   41       24.200173   0.000000
   42       24.238143   0.000000
   43       24.493530   0.000000
   44       24.520569   0.000000
   45       26.191848   0.000000
   46       26.262626   0.000000
   47       26.483858   0.000000
   48       26.557680   0.000000
   49       26.989836   0.000000
   50       27.005775   0.000000
   51       28.154070   0.000000
   52       28.167932   0.000000
   53       28.654580   0.000000
   54       28.701418   0.000000
   55       30.455550   0.000000
   56       30.825546   0.000000
 
 -0.1666667E+00  0.1666667E+00  0.0000000E+00  0.5555556E-01
    1       -7.452512   1.000000
    2       -7.448840   1.000000
    3       -0.451846   1.000000
    4       -0.451461   1.000000
    5        1.518986   1.000000
    6        1.540633   1.000000
    7        2.606500   1.000000
    8        2.616938   1.000000
    9        5.452442   0.000000
   10        5.497968   0.000000
   11        7.639698   0.000000
   12        7.814115   0.000000
   13        8.392418   0.000000
   14        8.478415   0.000000
   15        8.658869   0.000000
   16        8.700172   0.000000
   17       10.973054   0.000000
   18       11.006325   0.000000
   19       12.488759   0.000000
   20       12.492528   0.000000
   21       13.433142   0.000000
   22       13.479459   0.000000
   23       14.504687   0.000000
   24       14.543239   0.000000
   25       15.995835   0.000000
   26       16.076169   0.000000
   27       17.643730   0.000000
   28       17.747667   0.000000
   29       18.229556   0.000000
   30       18.280620   0.000000
   31       20.328657   0.000000
   32       20.368283   0.000000
   33       21.494416   0.000000
   34       21.553116   0.000000
   35       21.719725   0.000000
   36       21.720091   0.000000
   37       21.971046   0.000000
   38       22.015971   0.000000
   39       23.148596   0.000000
   40       23.265140   0.000000
   41       25.938838   0.000000
   42       26.028354   0.000000
   43       26.403777   0.000000
   44       26.427255   0.000000
   45       27.236594   0.000000
   46       27.352547   0.000000
   47       28.277290   0.000000
   48       28.300582   0.000000
   49       29.413847   0.000000
   50       29.466801   0.000000
   51       29.726139   0.000000
   52       29.768891   0.000000
   53       30.461672   0.000000
   54       30.606309   0.000000
   55       31.258812   0.000000
   56       31.377719   0.000000
 
  0.3333333E+00  0.3333333E+00  0.0000000E+00  0.2777778E-01
    1       -6.811059   1.000000
    2       -6.811059   1.000000
    3       -1.546653   1.000000
    4       -1.546653   1.000000
    5        1.367627   1.000000
    6        1.367627   1.000000
    7        1.406586   1.000000
    8        1.406586   1.000000
    9        5.322143   0.000000
   10        5.322144   0.000000
   11        5.864745   0.000000
   12        5.864745   0.000000
   13       10.516819   0.000000
   14       10.516819   0.000000
   15       10.876066   0.000000
   16       10.876066   0.000000
   17       11.074730   0.000000
   18       11.074730   0.000000
   19       14.052367   0.000000
   20       14.052367   0.000000
   21       15.813119   0.000000
   22       15.813119   0.000000
   23       16.792037   0.000000
   24       16.792037   0.000000
   25       16.866406   0.000000
   26       16.866406   0.000000
   27       17.456222   0.000000
   28       17.456223   0.000000
   29       17.694331   0.000000
   30       17.694331   0.000000
   31       17.867106   0.000000
   32       17.867106   0.000000
   33       18.747610   0.000000
   34       18.747610   0.000000
   35       19.485058   0.000000
   36       19.485059   0.000000
   37       24.367052   0.000000
   38       24.367053   0.000000
   39       24.748680   0.000000
   40       24.748681   0.000000
   41       24.856942   0.000000
   42       24.856943   0.000000
   43       24.880581   0.000000
   44       24.880582   0.000000
   45       26.388419   0.000000
   46       26.388423   0.000000
   47       26.535082   0.000000
   48       26.535084   0.000000
   49       27.475649   0.000000
   50       27.475685   0.000000
   51       27.616956   0.000000
   52       27.616975   0.000000
   53       28.465671   0.000000
   54       28.465818   0.000000
   55       31.532733   0.000000
   56       31.688450   0.000000
 
  0.5000000E+00  0.3333333E+00  0.0000000E+00  0.5555556E-01
    1       -6.243211   1.000000
    2       -6.227643   1.000000
    3       -2.437838   1.000000
    4       -2.418740   1.000000
    5        0.569670   1.000000
    6        0.598681   1.000000
    7        1.262951   1.000000
    8        1.266051   1.000000
    9        5.418998   0.000000
   10        5.430720   0.000000
   11        6.472455   0.000000
   12        6.474379   0.000000
   13       10.244713   0.000000
   14       10.327000   0.000000
   15       11.103803   0.000000
   16       11.122012   0.000000
   17       12.293481   0.000000
   18       12.417087   0.000000
   19       14.623736   0.000000
   20       14.662120   0.000000
   21       15.390580   0.000000
   22       15.522368   0.000000
   23       15.829833   0.000000
   24       15.836899   0.000000
   25       16.445741   0.000000
   26       16.488414   0.000000
   27       18.153467   0.000000
   28       18.190133   0.000000
   29       18.667352   0.000000
   30       18.739659   0.000000
   31       19.564510   0.000000
   32       19.582678   0.000000
   33       19.917529   0.000000
   34       19.969285   0.000000
   35       20.781913   0.000000
   36       20.804526   0.000000
   37       21.411261   0.000000
   38       21.503789   0.000000
   39       23.128475   0.000000
   40       23.160436   0.000000
   41       23.285545   0.000000
   42       23.393048   0.000000
   43       23.996956   0.000000
   44       24.076993   0.000000
   45       25.709198   0.000000
   46       25.781274   0.000000
   47       26.153455   0.000000
   48       26.155892   0.000000
   49       27.440287   0.000000
   50       27.466936   0.000000
   51       27.969516   0.000000
   52       28.020610   0.000000
   53       29.461966   0.000000
   54       29.578285   0.000000
   55       29.840569   0.000000
   56       30.761213   0.000000
 
 -0.3333333E+00  0.3333333E+00  0.0000000E+00  0.5555556E-01
    1       -6.208097   1.000000
    2       -6.183284   1.000000
    3       -2.474187   1.000000
    4       -2.437595   1.000000
    5        0.018709   1.000000
    6        0.039646   1.000000
    7        1.589083   1.000000
    8        1.594239   1.000000
    9        5.701779   0.000000
   10        5.732061   0.000000
   11        7.975258   0.000000
   12        8.075029   0.000000
   13       10.053305   0.000000
   14       10.163228   0.000000
   15       10.171211   0.000000
   16       10.238473   0.000000
   17       10.962109   0.000000
   18       11.119792   0.000000
   19       12.559226   0.000000
   20       12.597685   0.000000
   21       15.998292   0.000000
   22       16.022355   0.000000
   23       16.523270   0.000000
   24       16.554017   0.000000
   25       17.640560   0.000000
   26       17.743071   0.000000
   27       18.321878   0.000000
   28       18.340518   0.000000
   29       18.731608   0.000000
   30       18.746738   0.000000
   31       19.254993   0.000000
   32       19.366801   0.000000
   33       20.629138   0.000000
   34       20.857040   0.000000
   35       22.167328   0.000000
   36       22.226947   0.000000
   37       22.401158   0.000000
   38       22.456638   0.000000
   39       23.075274   0.000000
   40       23.109461   0.000000
   41       23.287850   0.000000
   42       23.319448   0.000000
   43       24.114684   0.000000
   44       24.231363   0.000000
   45       25.213137   0.000000
   46       25.232981   0.000000
   47       25.772886   0.000000
   48       25.823502   0.000000
   49       26.629506   0.000000
   50       26.677234   0.000000
   51       27.754810   0.000000
   52       27.754835   0.000000
   53       27.879861   0.000000
   54       27.888048   0.000000
   55       28.511768   0.000000
   56       28.520855   0.000000
 
 -0.1666667E+00  0.3333333E+00  0.0000000E+00  0.5555556E-01
    1       -6.743211   1.000000
    2       -6.731761   1.000000
    3       -1.994072   1.000000
    4       -1.977797   1.000000
    5        0.901638   1.000000
    6        0.921350   1.000000
    7        2.145002   1.000000
    8        2.152637   1.000000
    9        5.581350   0.000000
   10        5.611908   0.000000
   11        7.898600   0.000000
   12        7.930366   0.000000
   13        8.863769   0.000000
   14        8.874741   0.000000
   15        9.405001   0.000000
   16        9.472677   0.000000
   17       11.919776   0.000000
   18       11.944897   0.000000
   19       12.748067   0.000000
   20       12.860809   0.000000
   21       13.907889   0.000000
   22       14.005530   0.000000
   23       15.251954   0.000000
   24       15.360458   0.000000
   25       17.144418   0.000000
   26       17.175847   0.000000
   27       18.243382   0.000000
   28       18.268628   0.000000
   29       18.448617   0.000000
   30       18.514129   0.000000
   31       19.784996   0.000000
   32       19.807536   0.000000
   33       21.300512   0.000000
   34       21.353836   0.000000
   35       22.544733   0.000000
   36       22.575234   0.000000
   37       22.773920   0.000000
   38       22.946974   0.000000
   39       23.833978   0.000000
   40       23.956868   0.000000
   41       24.200172   0.000000
   42       24.238144   0.000000
   43       24.493529   0.000000
   44       24.520570   0.000000
   45       26.191802   0.000000
   46       26.262699   0.000000
   47       26.483869   0.000000
   48       26.557741   0.000000
   49       26.989855   0.000000
   50       27.005884   0.000000
   51       28.152867   0.000000
   52       28.166436   0.000000
   53       28.657165   0.000000
   54       28.704322   0.000000
   55       30.423479   0.000000
   56       30.712421   0.000000
 
  0.5000000E+00  0.5000000E+00  0.0000000E+00  0.1388889E-01
    1       -6.016766   1.000000
    2       -6.016765   1.000000
    3       -2.776373   1.000000
    4       -2.776373   1.000000
    5        1.016202   1.000000
    6        1.016202   1.000000
    7        1.030236   1.000000
    8        1.030236   1.000000
    9        5.128082   0.000000
   10        5.128082   0.000000
   11        5.229909   0.000000
   12        5.229909   0.000000
   13       12.007149   0.000000
   14       12.007149   0.000000
   15       12.527933   0.000000
   16       12.527933   0.000000
   17       12.696409   0.000000
   18       12.696409   0.000000
   19       14.960152   0.000000
   20       14.960152   0.000000
   21       15.452705   0.000000
   22       15.452705   0.000000
   23       15.537135   0.000000
   24       15.537135   0.000000
   25       15.850879   0.000000
   26       15.850879   0.000000
   27       17.087157   0.000000
   28       17.087157   0.000000
   29       20.065659   0.000000
   30       20.065659   0.000000
   31       20.247675   0.000000
   32       20.247675   0.000000