       N       E                     dE             d eps       ncg     rms          ort
DAV:   1     0.323998143603E+02    0.32400E+02   -0.27162E+03   630   0.541E+02
DAV:   2    -0.527049633661E+01   -0.37670E+02   -0.33644E+02   630   0.111E+02
DAV:   3    -0.110840349757E+02   -0.58135E+01   -0.54060E+01   630   0.479E+01
DAV:   4    -0.119366901401E+02   -0.85266E+00   -0.81208E+00   630   0.190E+01
DAV:   5    -0.120772766697E+02   -0.14059E+00   -0.13530E+00   630   0.722E+00
SDA:   6    -0.104967669910E+02    0.15805E+01   -0.93324E+00   630   0.233E+01 0.000E+00
DMP:   7    -0.111187959403E+02   -0.62203E+00   -0.25265E+00   630   0.333E+00 0.782E+00
DMP:   8    -0.112341977260E+02   -0.11540E+00   -0.47911E-01   630   0.141E+00-0.548E-01
DMP:   9    -0.112637168016E+02   -0.29519E-01   -0.48236E-01   630   0.110E+00 0.269E-01
DMP:  10    -0.112964639255E+02   -0.32747E-01   -0.16815E-01   630   0.256E-01 0.431E-01
DMP:  11    -0.113053251260E+02   -0.88612E-02   -0.30292E-02   630   0.674E-02 0.219E-02
DMP:  12    -0.113068598776E+02   -0.15348E-02   -0.20143E-02   630   0.500E-02 0.103E-03
DMP:  13    -0.113081989892E+02   -0.13391E-02   -0.82605E-03   630   0.145E-02 0.162E-02
DMP:  14    -0.113086251012E+02   -0.42611E-03   -0.14288E-03   630   0.316E-03 0.107E-03
DMP:  15    -0.113086910681E+02   -0.65967E-04   -0.86617E-04   630   0.244E-03-0.724E-04
DMP:  16    -0.113087424840E+02   -0.51416E-04   -0.54370E-04   630   0.104E-03 0.830E-04
DMP:  17    -0.113087767682E+02   -0.34284E-04   -0.14854E-04   630   0.236E-04 0.355E-04
DMP:  18    -0.113087932026E+02   -0.16434E-04   -0.49914E-05   630   0.114E-04 0.274E-05
DMP:  19    -0.113087881178E+02    0.50847E-05   -0.31331E-05   630   0.622E-05 0.422E-05
   1 F= -.11308788E+02 E0= -.11308794E+02  d E =0.172514E-04  mag=     0.0000     0.0000    -0.0000
