       N       E                     dE             d eps       ncg     rms          rms(c)
DAV:   1     0.154288627676E+02    0.15429E+02   -0.25295E+03  1260   0.484E+02
DAV:   2    -0.115384800352E+02   -0.26967E+02   -0.25940E+02  1540   0.870E+01
DAV:   3    -0.129583172898E+02   -0.14198E+01   -0.14166E+01  1589   0.212E+01
DAV:   4    -0.129686205004E+02   -0.10303E-01   -0.10303E-01  1456   0.224E+00
DAV:   5    -0.129686842675E+02   -0.63767E-04   -0.63767E-04  1624   0.184E-01    0.571E+00
RMM:   6    -0.123687240745E+02    0.59996E+00   -0.28186E-01  1260   0.316E+00    0.357E+00
RMM:   7    -0.120992021031E+02    0.26952E+00   -0.68645E-01  1271   0.467E+00    0.120E+00
RMM:   8    -0.121546735547E+02   -0.55471E-01   -0.32654E-01  1330   0.436E+00    0.112E+00
RMM:   9    -0.121345099824E+02    0.20164E-01   -0.54771E-01  1279   0.547E+00    0.690E-01
RMM:  10    -0.121771300129E+02   -0.42620E-01   -0.53440E-01  1270   0.557E+00    0.545E-01
RMM:  11    -0.119989284920E+02    0.17820E+00   -0.16929E-01  1281   0.313E+00    0.119E-01
RMM:  12    -0.119993468721E+02   -0.41838E-03   -0.11946E-03  1339   0.200E-01    0.110E-01
RMM:  13    -0.120012370244E+02   -0.18902E-02   -0.40277E-03  1274   0.421E-01    0.722E-02
RMM:  14    -0.120027742753E+02   -0.15373E-02   -0.52283E-03  1368   0.540E-01    0.420E-02
RMM:  15    -0.120003974308E+02    0.23768E-02   -0.22260E-03  1365   0.358E-01    0.165E-02
RMM:  16    -0.120003787088E+02    0.18722E-04   -0.16183E-05  1363   0.260E-02    0.473E-03
RMM:  17    -0.120003843388E+02   -0.56300E-05   -0.61160E-06  1125   0.166E-02
   1 F= -.12000384E+02 E0= -.12000390E+02  d E =0.169035E-04  mag=     0.0000     0.0000     0.0000
