       N       E                     dE             d eps       ncg     rms          ort
DAV:   1     0.191753179767E+01    0.19175E+01   -0.30029E+03  1232   0.178E+02
DAV:   2    -0.134062848772E+02   -0.15324E+02   -0.15324E+02  1232   0.277E+01
DAV:   3    -0.135442738086E+02   -0.13799E+00   -0.13799E+00  1232   0.355E+00
DAV:   4    -0.135452200085E+02   -0.94620E-03   -0.94620E-03  1232   0.269E-01
DAV:   5    -0.135452295745E+02   -0.95659E-05   -0.95659E-05  1232   0.281E-02
SDA:   6    -0.949977158496E+01    0.40455E+01   -0.19955E+01  1232   0.499E+01 0.000E+00
DMP:   7    -0.110456971110E+02   -0.15459E+01   -0.10458E+01  1232   0.156E+01 0.277E+01
DMP:   8    -0.117268122509E+02   -0.68112E+00   -0.21134E+00  1232   0.218E+00 0.812E+00
DMP:   9    -0.118299664355E+02   -0.10315E+00   -0.28728E-01  1232   0.758E-01-0.104E-01
DMP:  10    -0.118410689150E+02   -0.11102E-01   -0.22106E-01  1232   0.616E-01-0.166E-01
DMP:  11    -0.118560397009E+02   -0.14971E-01   -0.12945E-01  1232   0.250E-01 0.192E-01
DMP:  12    -0.118642929759E+02   -0.82533E-02   -0.40513E-02  1232   0.684E-02 0.860E-02
DMP:  13    -0.118666358193E+02   -0.23428E-02   -0.14472E-02  1232   0.305E-02 0.148E-02
DMP:  14    -0.118676079239E+02   -0.97210E-03   -0.84460E-03  1232   0.164E-02 0.122E-02
DMP:  15    -0.118682016145E+02   -0.59369E-03   -0.34013E-03  1232   0.522E-03 0.859E-03
DMP:  16    -0.118684101202E+02   -0.20851E-03   -0.71342E-04  1232   0.103E-03 0.198E-03
DMP:  17    -0.118684422701E+02   -0.32150E-04   -0.15915E-04  1232   0.449E-04-0.134E-04
   1 F= -.11868442E+02 E0= -.11868451E+02  d E =0.268441E-04  mag=     0.0000    -0.0000    -0.0000
