       N       E                     dE             d eps       ncg     rms          ort
DAV:   1     0.107688838644E+01    0.10769E+01   -0.30022E+03  1232   0.178E+02
DAV:   2    -0.140737361752E+02   -0.15151E+02   -0.15151E+02  1232   0.275E+01
DAV:   3    -0.142084746333E+02   -0.13474E+00   -0.13474E+00  1232   0.351E+00
DAV:   4    -0.142093930712E+02   -0.91844E-03   -0.91844E-03  1232   0.265E-01
DAV:   5    -0.142094023378E+02   -0.92666E-05   -0.92667E-05  1232   0.276E-02
SDA:   6    -0.104989854269E+02    0.37104E+01   -0.18399E+01  1232   0.460E+01 0.000E+00
DMP:   7    -0.119212827394E+02   -0.14223E+01   -0.95455E+00  1232   0.142E+01 0.254E+01
DMP:   8    -0.125383615560E+02   -0.61708E+00   -0.18503E+00  1232   0.188E+00 0.718E+00
DMP:   9    -0.126250082699E+02   -0.86647E-01   -0.23009E-01  1232   0.680E-01-0.273E-01
DMP:  10    -0.126328626236E+02   -0.78544E-02   -0.20370E-01  1232   0.580E-01-0.185E-01
DMP:  11    -0.126468237756E+02   -0.13961E-01   -0.12235E-01  1232   0.235E-01 0.185E-01
DMP:  12    -0.126546342669E+02   -0.78105E-02   -0.37189E-02  1232   0.617E-02 0.819E-02
DMP:  13    -0.126567424107E+02   -0.21081E-02   -0.12456E-02  1232   0.267E-02 0.115E-02
DMP:  14    -0.126575573833E+02   -0.81497E-03   -0.72900E-03  1232   0.146E-02 0.945E-03
DMP:  15    -0.126580641600E+02   -0.50678E-03   -0.29575E-03  1232   0.467E-03 0.714E-03
DMP:  16    -0.126582425744E+02   -0.17841E-03   -0.60936E-04  1232   0.917E-04 0.159E-03
DMP:  17    -0.126582685949E+02   -0.26020E-04   -0.13636E-04  1232   0.410E-04-0.180E-04
   1 F= -.12658269E+02 E0= -.12658278E+02  d E =0.268422E-04  mag=    -0.0000    -0.0000    -0.0000
