 vasp.5.4.4.18Apr17-6-g9f103f2a35 (build Nov 08 2017 12:56:59) complex          
  
 executed on             LinuxIFC date 2021.06.03  11:57:54
 running on   56 total cores
 distrk:  each k-point on   14 cores,    4 groups
 distr:  one band on NCORES_PER_BAND=   2 cores,    7 groups


--------------------------------------------------------------------------------------------------------


 INCAR:
 POTCAR:    PAW_PBE In 08Apr2002                  
 POTCAR:    PAW_PBE As 22Sep2009                  

 ----------------------------------------------------------------------------- 
|                                                                             |
|           W    W    AA    RRRRR   N    N  II  N    N   GGGG   !!!           |
|           W    W   A  A   R    R  NN   N  II  NN   N  G    G  !!!           |
|           W    W  A    A  R    R  N N  N  II  N N  N  G       !!!           |
|           W WW W  AAAAAA  RRRRR   N  N N  II  N  N N  G  GGG   !            |
|           WW  WW  A    A  R   R   N   NN  II  N   NN  G    G                |
|           W    W  A    A  R    R  N    N  II  N    N   GGGG   !!!           |
|                                                                             |
|      For optimal performance we recommend to set                            |
|        NCORE= 4 - approx SQRT( number of cores)                             |
|      NCORE specifies how many cores store one orbital (NPAR=cpu/NCORE).     |
|      This setting can  greatly improve the performance of VASP for DFT.     |
|      The default,   NCORE=1            might be grossly inefficient         |
|      on modern multi-core architectures or massively parallel machines.     |
|      Do your own testing !!!!                                               |
|      Unfortunately you need to use the default for GW and RPA calculations. |
|      (for HF NCORE is supported but not extensively tested yet)             |
|                                                                             |
 ----------------------------------------------------------------------------- 


 ----------------------------------------------------------------------------- 
|                                                                             |
|           W    W    AA    RRRRR   N    N  II  N    N   GGGG   !!!           |
|           W    W   A  A   R    R  NN   N  II  NN   N  G    G  !!!           |
|           W    W  A    A  R    R  N N  N  II  N N  N  G       !!!           |
|           W WW W  AAAAAA  RRRRR   N  N N  II  N  N N  G  GGG   !            |
|           WW  WW  A    A  R   R   N   NN  II  N   NN  G    G                |
|           W    W  A    A  R    R  N    N  II  N    N   GGGG   !!!           |
|                                                                             |
|      You have enabled k-point parallelism (KPAR>1).                         |
|      This developmental code was originally  written by Paul Kent at ORNL,  |
|      and carefully double checked in Vienna.                                |
|      GW as well as linear response parallelism added by Martijn Marsman     |
|      and Georg Kresse.                                                      |
|      Carefully verify results versus KPAR=1.                                |
|      Report problems to Paul Kent and Vienna.                               |
|                                                                             |
 ----------------------------------------------------------------------------- 

 POTCAR:    PAW_PBE In 08Apr2002                  
   VRHFIN =In: s2p1                                                             
   LEXCH  = PE                                                                  
   EATOM  =    53.7908 eV,    3.9535 Ry                                         
                                                                                
   TITEL  = PAW_PBE In 08Apr2002                                                
   LULTRA =        F    use ultrasoft PP ?                                      
   IUNSCR =        1    unscreen: 0-lin 1-nonlin 2-no                           
   RPACOR =    2.400    partial core radius                                     
   POMASS =  114.820; ZVAL   =    3.000    mass and valenz                      
   RCORE  =    3.100    outmost cutoff radius                                   
   RWIGS  =    3.170; RWIGS  =    1.677    wigner-seitz radius (au A)           
   ENMAX  =   95.934; ENMIN  =   71.951 eV                                      
   ICORE  =        3    local potential                                         
   LCOR   =        T    correct aug charges                                     
   LPAW   =        T    paw PP                                                  
   EAUG   =  237.125                                                            
   DEXC   =    0.000                                                            
   RMAX   =    3.168    core radius for proj-oper                               
   RAUG   =    1.300    factor for augmentation sphere                          
   RDEP   =    3.187    radius for radial grids                                 
   RDEPT  =    2.711    core radius for aug-charge                              
                                                                                
   Atomic configuration                                                         
   13 entries                                                                   
     n  l   j            E        occ.                                          
     1  0  0.50    -27747.9169   2.0000                                         
     2  0  0.50     -4154.4438   2.0000                                         
     2  1  1.50     -3728.4305   6.0000                                         
     3  0  0.50      -788.3680   2.0000                                         
     3  1  1.50      -648.9215   6.0000                                         
     3  2  2.50      -432.5893  10.0000                                         
     4  0  0.50      -119.6363   2.0000                                         
     4  1  1.50       -78.1086   6.0000                                         
     4  2  2.50       -18.6227  10.0000                                         
     5  0  0.50        -8.2107   2.0000                                         
     5  1  0.50        -2.5185   1.0000                                         
     5  2  2.50        -1.3606   0.0000                                         
     4  3  2.50        -2.7212   0.0000                                         
   Description                                                                  
     l       E           TYP  RCUT    TYP  RCUT                                 
     0     -8.2107306     23  3.100                                             
     0     -6.1485975     23  3.100                                             
     1     -2.5184867     23  3.100                                             
     1      3.2427302     23  3.100                                             
     2     -1.3605826     23  3.100                                             
     3     -1.3605826     23  3.100                                             
  local pseudopotential read in
  partial core-charges read in
  partial kinetic energy density read in
  atomic valenz-charges read in
  non local Contribution for L=           0  read in
    real space projection operators read in
  non local Contribution for L=           0  read in
    real space projection operators read in
  non local Contribution for L=           1  read in
    real space projection operators read in
  non local Contribution for L=           1  read in
    real space projection operators read in
  non local Contribution for L=           2  read in
    real space projection operators read in
    PAW grid and wavefunctions read in
 
   number of l-projection  operators is LMAX  =           5
   number of lm-projection operators is LMMAX =          13
 
 POTCAR:    PAW_PBE As 22Sep2009                  
   VRHFIN =As: s2p3                                                             
   LEXCH  = PE                                                                  
   EATOM  =   170.1867 eV,   12.5084 Ry                                         
                                                                                
   TITEL  = PAW_PBE As 22Sep2009                                                
   LULTRA =        F    use ultrasoft PP ?                                      
   IUNSCR =        1    unscreen: 0-lin 1-nonlin 2-no                           
   RPACOR =    1.900    partial core radius                                     
   POMASS =   74.922; ZVAL   =    5.000    mass and valenz                      
   RCORE  =    2.100    outmost cutoff radius                                   
   RWIGS  =    2.300; RWIGS  =    1.217    wigner-seitz radius (au A)           
   ENMAX  =  208.702; ENMIN  =  156.526 eV                                      
   ICORE  =        3    local potential                                         
   LCOR   =        T    correct aug charges                                     
   LPAW   =        T    paw PP                                                  
   EAUG   =  462.758                                                            
   DEXC   =    0.000                                                            
   RMAX   =    2.144    core radius for proj-oper                               
   RAUG   =    1.300    factor for augmentation sphere                          
   RDEP   =    2.140    radius for radial grids                                 
   RDEPT  =    1.956    core radius for aug-charge                              
                                                                                
   Atomic configuration                                                         
   10 entries                                                                   
     n  l   j            E        occ.                                          
     1  0  0.50    -11718.0418   2.0000                                         
     2  0  0.50     -1486.5454   2.0000                                         
     2  1  1.50     -1303.3889   6.0000                                         
     3  0  0.50      -190.2849   2.0000                                         
     3  1  1.50      -133.6555   6.0000                                         
     3  2  2.50       -40.6443  10.0000                                         
     4  0  0.50       -14.4936   2.0000                                         
     4  1  0.50        -5.1947   3.0000                                         
     4  2  1.50        -5.4423   0.0000                                         
     4  3  2.50        -5.4423   0.0000                                         
   Description                                                                  
     l       E           TYP  RCUT    TYP  RCUT                                 
     0    -14.4935570     23  2.100                                             
     0    -11.9212055     23  2.100                                             
     1     -5.1947127     23  2.100                                             
     1     27.2116520     23  2.100                                             
     2     -5.4423304     23  2.100                                             
     3     -1.3605826      7  2.100                                             
  local pseudopotential read in
  partial core-charges read in
  partial kinetic energy density read in
  atomic valenz-charges read in
  non local Contribution for L=           0  read in
    real space projection operators read in
  non local Contribution for L=           0  read in
    real space projection operators read in
  non local Contribution for L=           1  read in
    real space projection operators read in
  non local Contribution for L=           1  read in
    real space projection operators read in
  non local Contribution for L=           2  read in
    real space projection operators read in
    PAW grid and wavefunctions read in
 
   number of l-projection  operators is LMAX  =           5
   number of lm-projection operators is LMMAX =          13
 
  PAW_PBE In 08Apr2002                  :
 energy of atom  1       EATOM=  -53.7908
 kinetic energy error for atom=    0.0000 (will be added to EATOM!!)
  PAW_PBE As 22Sep2009                  :
 energy of atom  2       EATOM= -170.1867
 kinetic energy error for atom=    0.0013 (will be added to EATOM!!)
 
 
 POSCAR: In As                                   
  positions in direct lattice
  No initial velocities read in
 exchange correlation table for  LEXCH =        8
   RHO(1)=    0.500       N(1)  =     2000
   RHO(2)=  100.500       N(2)  =     4000
 


--------------------------------------------------------------------------------------------------------


 ion  position               nearest neighbor table
   1  0.000  0.000  0.000-   2 2.62   2 2.62   2 2.62   2 2.62
   2  0.750  0.750  0.750-   1 2.62   1 2.62   1 2.62   1 2.62
 
  LATTYP: Found a face centered cubic cell.
 ALAT       =     6.0584000000
  
  Lattice vectors:
  
 A1 = (   0.0000000000,   3.0292000000,   3.0292000000)
 A2 = (   3.0292000000,   0.0000000000,   3.0292000000)
 A3 = (   3.0292000000,   3.0292000000,   0.0000000000)


Analysis of symmetry for initial positions (statically):
=====================================================================
 Subroutine PRICEL returns:
 Original cell was already a primitive cell.
 

 Routine SETGRP: Setting up the symmetry group for a 
 face centered cubic supercell.


 Subroutine GETGRP returns: Found 24 space group operations
 (whereof 24 operations were pure point group operations)
 out of a pool of 48 trial point group operations.


The static configuration has the point symmetry T_d .


Analysis of symmetry for dynamics (positions and initial velocities):
=====================================================================
 Subroutine PRICEL returns:
 Original cell was already a primitive cell.
 

 Routine SETGRP: Setting up the symmetry group for a 
 face centered cubic supercell.


 Subroutine GETGRP returns: Found 24 space group operations
 (whereof 24 operations were pure point group operations)
 out of a pool of 48 trial point group operations.


The dynamic configuration has the point symmetry T_d .


Analysis of structural, dynamic, and magnetic symmetry:
=====================================================================
 Subroutine PRICEL returns:
 Original cell was already a primitive cell.
 

 Routine SETGRP: Setting up the symmetry group for a 
 face centered cubic supercell.


 Subroutine GETGRP returns: Found 24 space group operations
 (whereof 24 operations were pure point group operations)
 out of a pool of 48 trial point group operations.


The (compounded) configuration has the point symmetry T_d .


 Subroutine INISYM returns: Found 24 space group operations
 (whereof 24 operations are pure point group operations),
 and found     1 'primitive' translations

 
 
 KPOINTS: KPOINTS created by Atomic Simulation Env

Automatic generation of k-mesh.
Space group operators:
 irot       det(A)        alpha          n_x          n_y          n_z        tau_x        tau_y        tau_z
    1     1.000000     0.000000     1.000000     0.000000     0.000000     0.000000     0.000000     0.000000
    2     1.000000   120.000000    -0.577350    -0.577350    -0.577350     0.000000     0.000000     0.000000
    3     1.000000   120.000000     0.577350     0.577350     0.577350     0.000000     0.000000     0.000000
    4    -1.000000    90.000000     0.000000     0.000000    -1.000000     0.000000     0.000000     0.000000
    5    -1.000000   180.000000     0.000000     0.707107     0.707107     0.000000     0.000000     0.000000
    6    -1.000000    90.000000     0.000000     1.000000     0.000000     0.000000     0.000000     0.000000
    7     1.000000   180.000000     0.000000     0.000000     1.000000     0.000000     0.000000     0.000000
    8     1.000000   120.000000    -0.577350     0.577350     0.577350     0.000000     0.000000     0.000000
    9     1.000000   120.000000    -0.577350     0.577350    -0.577350     0.000000     0.000000     0.000000
   10    -1.000000    90.000000     0.000000     0.000000     1.000000     0.000000     0.000000     0.000000
   11    -1.000000    90.000000    -1.000000     0.000000     0.000000     0.000000     0.000000     0.000000
   12    -1.000000   180.000000     0.707107     0.000000     0.707107     0.000000     0.000000     0.000000
   13     1.000000   120.000000     0.577350    -0.577350     0.577350     0.000000     0.000000     0.000000
   14     1.000000   120.000000    -0.577350    -0.577350     0.577350     0.000000     0.000000     0.000000
   15     1.000000   180.000000     1.000000     0.000000     0.000000     0.000000     0.000000     0.000000
   16    -1.000000    90.000000     0.000000    -1.000000     0.000000     0.000000     0.000000     0.000000
   17    -1.000000   180.000000     0.707107     0.707107     0.000000     0.000000     0.000000     0.000000
   18    -1.000000    90.000000     1.000000     0.000000     0.000000     0.000000     0.000000     0.000000
   19     1.000000   120.000000     0.577350    -0.577350    -0.577350     0.000000     0.000000     0.000000
   20     1.000000   180.000000     0.000000     1.000000     0.000000     0.000000     0.000000     0.000000
   21     1.000000   120.000000     0.577350     0.577350    -0.577350     0.000000     0.000000     0.000000
   22    -1.000000   180.000000     0.000000    -0.707107     0.707107     0.000000     0.000000     0.000000
   23    -1.000000   180.000000     0.707107    -0.707107     0.000000     0.000000     0.000000     0.000000
   24    -1.000000   180.000000     0.707107     0.000000    -0.707107     0.000000     0.000000     0.000000
 
 Subroutine IBZKPT returns following result:
 ===========================================
 
 Found     30 irreducible k-points:
 
 Following reciprocal coordinates:
            Coordinates               Weight
  0.000000  0.000000  0.000000      1.000000
  0.142857  0.000000  0.000000      4.000000
  0.285714  0.000000  0.000000      4.000000
  0.428571  0.000000  0.000000      4.000000
 -0.428571  0.000000  0.000000      4.000000
 -0.285714  0.000000  0.000000      4.000000
 -0.142857  0.000000  0.000000      4.000000
  0.142857  0.142857  0.000000      6.000000
  0.285714  0.142857  0.000000     12.000000
  0.428571  0.142857  0.000000     12.000000
 -0.428571  0.142857  0.000000     12.000000
 -0.285714  0.142857  0.000000     12.000000
 -0.142857  0.142857  0.000000     12.000000
  0.285714  0.285714  0.000000      6.000000
  0.428571  0.285714  0.000000     12.000000
 -0.428571  0.285714  0.000000     12.000000
 -0.285714  0.285714  0.000000     12.000000
 -0.142857  0.285714  0.000000     12.000000
  0.428571  0.428571  0.000000      6.000000
 -0.428571  0.428571  0.000000     12.000000
 -0.285714  0.428571  0.000000     12.000000
 -0.142857  0.428571  0.000000     12.000000
 -0.285714 -0.428571  0.000000     12.000000
 -0.142857 -0.428571  0.000000     12.000000
 -0.142857 -0.285714  0.000000     12.000000
  0.428571  0.285714  0.142857     24.000000
 -0.428571  0.285714  0.142857     24.000000
 -0.285714  0.285714  0.142857     24.000000
 -0.428571  0.428571  0.142857     24.000000
 -0.285714  0.428571  0.142857     24.000000
 
 Following cartesian coordinates:
            Coordinates               Weight
  0.000000  0.000000  0.000000      1.000000
 -0.023580  0.023580  0.023580      4.000000
 -0.047160  0.047160  0.047160      4.000000
 -0.070740  0.070740  0.070740      4.000000
  0.070740 -0.070740 -0.070740      4.000000
  0.047160 -0.047160 -0.047160      4.000000
  0.023580 -0.023580 -0.023580      4.000000
  0.000000  0.000000  0.047160      6.000000
 -0.023580  0.023580  0.070740     12.000000
 -0.047160  0.047160  0.094320     12.000000
  0.094320 -0.094320 -0.047160     12.000000
  0.070740 -0.070740 -0.023580     12.000000
  0.047160 -0.047160  0.000000     12.000000
  0.000000  0.000000  0.094320      6.000000
 -0.023580  0.023580  0.117900     12.000000
  0.117900 -0.117900 -0.023580     12.000000
  0.094320 -0.094320  0.000000     12.000000
  0.070740 -0.070740  0.023580     12.000000
  0.000000  0.000000  0.141480      6.000000
  0.141480 -0.141480  0.000000     12.000000
  0.117900 -0.117900  0.023580     12.000000
  0.094320 -0.094320  0.047160     12.000000
 -0.023580  0.023580 -0.117900     12.000000
 -0.047160  0.047160 -0.094320     12.000000
 -0.023580  0.023580 -0.070740     12.000000
 -0.000000  0.047160  0.094320     24.000000
  0.141480 -0.094320 -0.047160     24.000000
  0.117900 -0.070740 -0.023580     24.000000
  0.165060 -0.117900 -0.023580     24.000000
  0.141480 -0.094320 -0.000000     24.000000
 


--------------------------------------------------------------------------------------------------------




 Dimension of arrays:
   k-points           NKPTS =     30   k-points in BZ     NKDIM =     30   number of bands    NBANDS=     21
   number of dos      NEDOS =    301   number of ions     NIONS =      2
   non local maximal  LDIM  =      5   non local SUM 2l+1 LMDIM =     13
   total plane-waves  NPLWV =  13824
   max r-space proj   IRMAX =      1   max aug-charges    IRDMAX=  28249
   dimension x,y,z NGX =    24 NGY =   24 NGZ =   24
   dimension x,y,z NGXF=    48 NGYF=   48 NGZF=   48
   support grid    NGXF=    48 NGYF=   48 NGZF=   48
   ions per type =               1   1
   NGX,Y,Z   is equivalent  to a cutoff of   9.31,  9.31,  9.31 a.u.
   NGXF,Y,Z  is equivalent  to a cutoff of  18.63, 18.63, 18.63 a.u.

 SYSTEM =  unknown system                          
 POSCAR =  In As                                   

 Startparameter for this run:
   NWRITE =      2    write-flag & timer
   PREC   = n         normal or accurate (medium, high low for compatibility)
   ISTART =      0    job   : 0-new  1-cont  2-samecut
   ICHARG =      2    charge: 1-file 2-atom 10-const
   ISPIN  =      1    spin polarized calculation?
   LNONCOLLINEAR =      T non collinear calculations
   LSORBIT =      T    spin-orbit coupling
   INIWAV =      1    electr: 0-lowe 1-rand  2-diag
   LASPH  =      F    aspherical Exc in radial PAW
   METAGGA=      F    non-selfconsistent MetaGGA calc.

 Electronic Relaxation 1
   ENCUT  =  400.0 eV  29.40 Ry    5.42 a.u.   6.99  6.99  6.99*2*pi/ulx,y,z
   ENINI  =  400.0     initial cutoff
   ENAUG  =  462.8 eV  augmentation charge cutoff
   NELM   =     60;   NELMIN=  2; NELMDL= -5     # of ELM steps 
   EDIFF  = 0.1E-04   stopping-criterion for ELM
   LREAL  =      F    real-space projection
   NLSPLINE    = F    spline interpolate recip. space projectors
   LCOMPAT=      F    compatible to vasp.4.4
   GGA_COMPAT  = T    GGA compatible to vasp.4.4-vasp.4.6
   LMAXPAW     = -100 max onsite density
   LMAXMIX     =    4 max onsite mixed and CHGCAR
   VOSKOWN=      0    Vosko Wilk Nusair interpolation
   ROPT   =    0.00000   0.00000
 Ionic relaxation
   EDIFFG = 0.1E-03   stopping-criterion for IOM
   NSW    =      0    number of steps for IOM
   NBLOCK =      1;   KBLOCK =      1    inner block; outer block 
   IBRION =     -1    ionic relax: 0-MD 1-quasi-New 2-CG
   NFREE  =      0    steps in history (QN), initial steepest desc. (CG)
   ISIF   =      2    stress and relaxation
   IWAVPR =     10    prediction:  0-non 1-charg 2-wave 3-comb
   ISYM   =      2    0-nonsym 1-usesym 2-fastsym
   LCORR  =      T    Harris-Foulkes like correction to forces

   POTIM  = 0.5000    time-step for ionic-motion
   TEIN   =    0.0    initial temperature
   TEBEG  =    0.0;   TEEND  =   0.0 temperature during run
   SMASS  =  -3.00    Nose mass-parameter (am)
   estimated Nose-frequenzy (Omega)   =  0.10E-29 period in steps =****** mass=  -0.419E-27a.u.
   SCALEE = 1.0000    scale energy and forces
   NPACO  =    256;   APACO  = 16.0  distance and # of slots for P.C.
   PSTRESS=    0.0 pullay stress

  Mass of Ions in am
   POMASS = 114.82 74.92
  Ionic Valenz
   ZVAL   =   3.00  5.00
  Atomic Wigner-Seitz radii
   RWIGS  =  -1.00 -1.00
  virtual crystal weights 
   VCA    =   1.00  1.00
   NELECT =       8.0000    total number of electrons
   NUPDOWN=      -1.0000    fix difference up-down

 DOS related values:
   EMIN   =  10.00;   EMAX   =-10.00  energy-range for DOS
   EFERMI =   0.00
   ISMEAR =     1;   SIGMA  =   0.05  broadening in eV -4-tet -1-fermi 0-gaus

 Electronic relaxation 2 (details)
   IALGO  =     68    algorithm
   LDIAG  =      T    sub-space diagonalisation (order eigenvalues)
   LSUBROT=      F    optimize rotation matrix (better conditioning)
   TURBO    =      0    0=normal 1=particle mesh
   IRESTART =      0    0=no restart 2=restart with 2 vectors
   NREBOOT  =      0    no. of reboots
   NMIN     =      0    reboot dimension
   EREF     =   0.00    reference energy to select bands
   IMIX   =      4    mixing-type and parameters
     AMIX     =   0.40;   BMIX     =  3.00
     AMIX_MAG =   1.60;   BMIX_MAG =  3.00
     AMIN     =   0.01
     WC   =   100.;   INIMIX=   1;  MIXPRE=   1;  MAXMIX= -45

 Intra band minimization:
   WEIMIN = 0.0000     energy-eigenvalue tresh-hold
   EBREAK =  0.12E-06  absolut break condition
   DEPER  =   0.30     relativ break condition  

   TIME   =   0.40     timestep for ELM

  volume/ion in A,a.u.               =      27.80       187.58
  Fermi-wavevector in a.u.,A,eV,Ry     =   0.857894  1.621184 10.013641  0.735982
  Thomas-Fermi vector in A             =   1.975016
 
 Write flags
   LWAVE        =      T    write WAVECAR
   LDOWNSAMPLE  =      F    k-point downsampling of WAVECAR
   LCHARG       =      T    write CHGCAR
   LVTOT        =      F    write LOCPOT, total local potential
   LVHAR        =      F    write LOCPOT, Hartree potential only
   LELF         =      F    write electronic localiz. function (ELF)
   LORBIT       =      0    0 simple, 1 ext, 2 COOP (PROOUT), +10 PAW based schemes


 Dipole corrections
   LMONO  =      F    monopole corrections only (constant potential shift)
   LDIPOL =      F    correct potential (dipole corrections)
   IDIPOL =      0    1-x, 2-y, 3-z, 4-all directions 
   EPSILON=  1.0000000 bulk dielectric constant

 LDA+U is selected, type is set to LDAUTYPE =  2
   angular momentum for each species LDAUL =     1    1
   U (eV)           for each species LDAUU =  -0.1 -7.0
   J (eV)           for each species LDAUJ =   0.0  0.0
 Exchange correlation treatment:
   GGA     =    PE    GGA type
   LEXCH   =     8    internal setting for exchange type
   VOSKOWN=      0    Vosko Wilk Nusair interpolation
   LHFCALC =     F    Hartree Fock is set to
   LHFONE  =     F    Hartree Fock one center treatment
   AEXX    =    0.0000 exact exchange contribution

 Linear response parameters
   LEPSILON=     F    determine dielectric tensor
   LRPA    =     F    only Hartree local field effects (RPA)
   LNABLA  =     F    use nabla operator in PAW spheres
   LVEL    =     F    velocity operator in full k-point grid
   LINTERFAST=   F  fast interpolation
   KINTER  =     0    interpolate to denser k-point grid
   CSHIFT  =0.1000    complex shift for real part using Kramers Kronig
   OMEGAMAX=  -1.0    maximum frequency
   DEG_THRESHOLD= 0.2000000E-02 threshold for treating states as degnerate
   RTIME   =   -0.100 relaxation time in fs
  (WPLASMAI=    0.000 imaginary part of plasma frequency in eV, 0.658/RTIME)
   DFIELD  = 0.0000000 0.0000000 0.0000000 field for delta impulse in time
 
 Orbital magnetization related:
   ORBITALMAG=     F  switch on orbital magnetization
   LCHIMAG   =     F  perturbation theory with respect to B field
   DQ        =  0.001000  dq finite difference perturbation B field
   LLRAUG    =     F  two centre corrections for induced B field



--------------------------------------------------------------------------------------------------------


 Static calculation
 charge density and potential will be updated during run
 non collinear spin polarized calculation
 RMM-DIIS sequential band-by-band and
  variant of blocked Davidson during initial phase
 perform sub-space diagonalisation
    before iterative eigenvector-optimisation
 modified Broyden-mixing scheme, WC =      100.0
 initial mixing is a Kerker type mixing with AMIX =  0.4000 and BMIX =      3.0000
 Hartree-type preconditioning will be used
 using additional bands           17
 reciprocal scheme for non local part
 use partial core corrections
 calculate Harris-corrections to forces 
   (improved forces if not selfconsistent)
 use gradient corrections 
 use of overlap-Matrix (Vanderbilt PP)
 Methfessel and Paxton  Order N= 1 SIGMA  =   0.05


--------------------------------------------------------------------------------------------------------


  energy-cutoff  :      400.00
  volume of cell :       55.59
      direct lattice vectors                 reciprocal lattice vectors
     0.000000000  3.029200000  3.029200000    -0.165060082  0.165060082  0.165060082
     3.029200000  0.000000000  3.029200000     0.165060082 -0.165060082  0.165060082
     3.029200000  3.029200000  0.000000000     0.165060082  0.165060082 -0.165060082

  length of vectors
     4.283935723  4.283935723  4.283935723     0.285892448  0.285892448  0.285892448


 
 k-points in units of 2pi/SCALE and weight: KPOINTS created by Atomic Simulation Env
   0.00000000  0.00000000  0.00000000       0.003
  -0.02358001  0.02358001  0.02358001       0.012
  -0.04716002  0.04716002  0.04716002       0.012
  -0.07074004  0.07074004  0.07074004       0.012
   0.07074004 -0.07074004 -0.07074004       0.012
   0.04716002 -0.04716002 -0.04716002       0.012
   0.02358001 -0.02358001 -0.02358001       0.012
   0.00000000  0.00000000  0.04716002       0.017
  -0.02358001  0.02358001  0.07074004       0.035
  -0.04716002  0.04716002  0.09432005       0.035
   0.09432005 -0.09432005 -0.04716002       0.035
   0.07074004 -0.07074004 -0.02358001       0.035
   0.04716002 -0.04716002  0.00000000       0.035
   0.00000000  0.00000000  0.09432005       0.017
  -0.02358001  0.02358001  0.11790006       0.035
   0.11790006 -0.11790006 -0.02358001       0.035
   0.09432005 -0.09432005  0.00000000       0.035
   0.07074004 -0.07074004  0.02358001       0.035
   0.00000000  0.00000000  0.14148007       0.017
   0.14148007 -0.14148007  0.00000000       0.035
   0.11790006 -0.11790006  0.02358001       0.035
   0.09432005 -0.09432005  0.04716002       0.035
  -0.02358001  0.02358001 -0.11790006       0.035
  -0.04716002  0.04716002 -0.09432005       0.035
  -0.02358001  0.02358001 -0.07074004       0.035
  -0.00000000  0.04716002  0.09432005       0.070
   0.14148007 -0.09432005 -0.04716002       0.070
   0.11790006 -0.07074004 -0.02358001       0.070
   0.16506008 -0.11790006 -0.02358001       0.070
   0.14148007 -0.09432005 -0.00000000       0.070
 
 k-points in reciprocal lattice and weights: KPOINTS created by Atomic Simulation Env
   0.00000000  0.00000000  0.00000000       0.003
   0.14285714  0.00000000  0.00000000       0.012
   0.28571429  0.00000000  0.00000000       0.012
   0.42857143  0.00000000  0.00000000       0.012
  -0.42857143  0.00000000  0.00000000       0.012
  -0.28571429  0.00000000  0.00000000       0.012
  -0.14285714  0.00000000  0.00000000       0.012
   0.14285714  0.14285714  0.00000000       0.017
   0.28571429  0.14285714  0.00000000       0.035
   0.42857143  0.14285714  0.00000000       0.035
  -0.42857143  0.14285714  0.00000000       0.035
  -0.28571429  0.14285714  0.00000000       0.035
  -0.14285714  0.14285714  0.00000000       0.035
   0.28571429  0.28571429  0.00000000       0.017
   0.42857143  0.28571429  0.00000000       0.035
  -0.42857143  0.28571429  0.00000000       0.035
  -0.28571429  0.28571429  0.00000000       0.035
  -0.14285714  0.28571429  0.00000000       0.035
   0.42857143  0.42857143  0.00000000       0.017
  -0.42857143  0.42857143  0.00000000       0.035
  -0.28571429  0.42857143  0.00000000       0.035
  -0.14285714  0.42857143  0.00000000       0.035
  -0.28571429 -0.42857143  0.00000000       0.035
  -0.14285714 -0.42857143  0.00000000       0.035
  -0.14285714 -0.28571429  0.00000000       0.035
   0.42857143  0.28571429  0.14285714       0.070
  -0.42857143  0.28571429  0.14285714       0.070
  -0.28571429  0.28571429  0.14285714       0.070
  -0.42857143  0.42857143  0.14285714       0.070
  -0.28571429  0.42857143  0.14285714       0.070
 
 position of ions in fractional coordinates (direct lattice) 
   0.00000000  0.00000000  0.00000000
   0.75000000  0.75000000  0.75000000
 
 position of ions in cartesian coordinates  (Angst):
   0.00000000  0.00000000  0.00000000
   4.54380000  4.54380000  4.54380000
 
 Euler angles ALPHA=     0.0000000  BETA=     0.0000000

 transformation matrix from SAXIS to cartesian coordinates
 ---------------------------------------------------------
     1.0000000 m_x     0.0000000 m_y     0.0000000 m_z
     0.0000000 m_x     1.0000000 m_y     0.0000000 m_z
     0.0000000 m_x     0.0000000 m_y     1.0000000 m_z

 transformation matrix from cartesian coordinates to SAXIS
 ---------------------------------------------------------
     1.0000000 m_x     0.0000000 m_y     0.0000000 m_z
     0.0000000 m_x     1.0000000 m_y     0.0000000 m_z
     0.0000000 m_x     0.0000000 m_y     1.0000000 m_z




--------------------------------------------------------------------------------------------------------


 k-point  1 :   0.0000 0.0000 0.0000  plane waves:    1930
 k-point  2 :   0.1429 0.0000 0.0000  plane waves:    1978
 k-point  3 :   0.2857 0.0000 0.0000  plane waves:    2020
 k-point  4 :   0.4286 0.0000 0.0000  plane waves:    2034
 k-point  5 :  -0.4286 0.0000 0.0000  plane waves:    2034
 k-point  6 :  -0.2857 0.0000 0.0000  plane waves:    2020
 k-point  7 :  -0.1429 0.0000 0.0000  plane waves:    1978
 k-point  8 :   0.1429 0.1429 0.0000  plane waves:    1988
 k-point  9 :   0.2857 0.1429 0.0000  plane waves:    2000
 k-point 10 :   0.4286 0.1429 0.0000  plane waves:    2020
 k-point 11 :  -0.4286 0.1429 0.0000  plane waves:    2012
 k-point 12 :  -0.2857 0.1429 0.0000  plane waves:    2036
 k-point 13 :  -0.1429 0.1429 0.0000  plane waves:    1990
 k-point 14 :   0.2857 0.2857 0.0000  plane waves:    2036
 k-point 15 :   0.4286 0.2857 0.0000  plane waves:    2024
 k-point 16 :  -0.4286 0.2857 0.0000  plane waves:    2022
 k-point 17 :  -0.2857 0.2857 0.0000  plane waves:    2022
 k-point 18 :  -0.1429 0.2857 0.0000  plane waves:    2036
 k-point 19 :   0.4286 0.4286 0.0000  plane waves:    2012
 k-point 20 :  -0.4286 0.4286 0.0000  plane waves:    2026
 k-point 21 :  -0.2857 0.4286 0.0000  plane waves:    2022
 k-point 22 :  -0.1429 0.4286 0.0000  plane waves:    2012
 k-point 23 :  -0.2857-0.4286 0.0000  plane waves:    2024
 k-point 24 :  -0.1429-0.4286 0.0000  plane waves:    2020
 k-point 25 :  -0.1429-0.2857 0.0000  plane waves:    2000
 k-point 26 :   0.4286 0.2857 0.1429  plane waves:    2022
 k-point 27 :  -0.4286 0.2857 0.1429  plane waves:    2026
 k-point 28 :  -0.2857 0.2857 0.1429  plane waves:    2026
 k-point 29 :  -0.4286 0.4286 0.1429  plane waves:    2038
 k-point 30 :  -0.2857 0.4286 0.1429  plane waves:    2028

 maximum and minimum number of plane-waves per node :      1034      962

 maximum number of plane-waves:      2038
 maximum index in each direction: 
   IXMAX=    7   IYMAX=    7   IZMAX=    6
   IXMIN=   -7   IYMIN=   -7   IZMIN=   -7


 parallel 3D FFT for wavefunctions:
    minimum data exchange during FFTs selected (reduces bandwidth)
 parallel 3D FFT for charge:
    minimum data exchange during FFTs selected (reduces bandwidth)


 total amount of memory used by VASP MPI-rank0    38738. kBytes
=======================================================================

   base      :      30000. kBytes
   nonl-proj :       3248. kBytes
   fftplans  :        830. kBytes
   grid      :       3096. kBytes
   one-center:         32. kBytes
   wavefun   :       1532. kBytes
 
     INWAV:  cpu time    0.0000: real time    0.0002
 Broyden mixing: mesh for mixing (old mesh)
   NGX = 13   NGY = 13   NGZ = 13
  (NGX  = 48   NGY  = 48   NGZ  = 48)
  gives a total of   2197 points

 initial charge density was supplied:
 charge density of overlapping atoms calculated
 number of electron       8.0000000 magnetization       0.0000000      0.0000000      0.0000000
 keeping initial charge density in first step


--------------------------------------------------------------------------------------------------------


 Maximum index for augmentation-charges         2498 (set IRDMAX)


--------------------------------------------------------------------------------------------------------


 First call to EWALD:  gamma=   0.464
 Maximum number of real-space cells 3x 3x 3
 Maximum number of reciprocal cells 3x 3x 3

    FEWALD:  cpu time    0.0333: real time    0.0334


--------------------------------------- Iteration      1(   1)  ---------------------------------------


    POTLOK:  cpu time    0.0312: real time    0.0369
    SETDIJ:  cpu time    0.1456: real time    0.1457
     EDDAV:  cpu time    0.3967: real time    0.3989
       DOS:  cpu time    0.0006: real time    0.0006
    --------------------------------------------
      LOOP:  cpu time    0.5741: real time    0.5822

 eigenvalue-minimisations  :  1260
 total energy-change (2. order) : 0.1542886E+02  (-0.2529464E+03)
 number of electron       8.0000000 magnetization       0.0000000      0.0000000      0.0000000
 augmentation part        8.0000000 magnetization       0.0000000      0.0000000      0.0000000

 Free energy of the ion-electron system (eV)
  ---------------------------------------------------
  alpha Z        PSCENC =         6.67624893
  Ewald energy   TEWEN  =      -213.84743004
  -Hartree energ DENC   =       -21.29595069
  -exchange      EXHF   =         0.00000000
  -V(xc)+E(xc)   XCENC  =       -67.69638834
  PAW double counting   =       241.28716127     -161.37627230
  entropy T*S    EENTRO =         0.00016920
  eigenvalues    EBANDS =         7.70511213
  atomic energy  EATOM  =       223.97621261
  Solvation  Ediel_sol  =         0.00000000
  ---------------------------------------------------
  free energy    TOTEN  =        15.42886277 eV

  energy without entropy =       15.42869357  energy(sigma->0) =       15.42880637


--------------------------------------------------------------------------------------------------------




--------------------------------------- Iteration      1(   2)  ---------------------------------------


     EDDAV:  cpu time    0.4687: real time    0.4702
       DOS:  cpu time    0.0003: real time    0.0003
    --------------------------------------------
      LOOP:  cpu time    0.4690: real time    0.4705

 eigenvalue-minimisations  :  1540
 total energy-change (2. order) :-0.2696734E+02  (-0.2593951E+02)
 number of electron       8.0000000 magnetization       0.0000000      0.0000000      0.0000000
 augmentation part        8.0000000 magnetization       0.0000000      0.0000000      0.0000000

 Free energy of the ion-electron system (eV)
  ---------------------------------------------------
  alpha Z        PSCENC =         6.67624893
  Ewald energy   TEWEN  =      -213.84743004
  -Hartree energ DENC   =       -21.29595069
  -exchange      EXHF   =         0.00000000
  -V(xc)+E(xc)   XCENC  =       -67.69638834
  PAW double counting   =       241.28716127     -161.37627230
  entropy T*S    EENTRO =         0.00000423
  eigenvalues    EBANDS =       -19.26206570
  atomic energy  EATOM  =       223.97621261
  Solvation  Ediel_sol  =         0.00000000
  ---------------------------------------------------
  free energy    TOTEN  =       -11.53848004 eV

  energy without entropy =      -11.53848426  energy(sigma->0) =      -11.53848144


--------------------------------------------------------------------------------------------------------




--------------------------------------- Iteration      1(   3)  ---------------------------------------


     EDDAV:  cpu time    0.4574: real time    0.4598
       DOS:  cpu time    0.0003: real time    0.0003
    --------------------------------------------
      LOOP:  cpu time    0.4577: real time    0.4601

 eigenvalue-minimisations  :  1589
 total energy-change (2. order) :-0.1419837E+01  (-0.1416562E+01)
 number of electron       8.0000000 magnetization       0.0000000      0.0000000      0.0000000
 augmentation part        8.0000000 magnetization       0.0000000      0.0000000      0.0000000

 Free energy of the ion-electron system (eV)
  ---------------------------------------------------
  alpha Z        PSCENC =         6.67624893
  Ewald energy   TEWEN  =      -213.84743004
  -Hartree energ DENC   =       -21.29595069
  -exchange      EXHF   =         0.00000000
  -V(xc)+E(xc)   XCENC  =       -67.69638834
  PAW double counting   =       241.28716127     -161.37627230
  entropy T*S    EENTRO =         0.00001697
  eigenvalues    EBANDS =       -20.68191570
  atomic energy  EATOM  =       223.97621261
  Solvation  Ediel_sol  =         0.00000000
  ---------------------------------------------------
  free energy    TOTEN  =       -12.95831729 eV

  energy without entropy =      -12.95833426  energy(sigma->0) =      -12.95832295


--------------------------------------------------------------------------------------------------------




--------------------------------------- Iteration      1(   4)  ---------------------------------------


     EDDAV:  cpu time    0.4250: real time    0.4257
       DOS:  cpu time    0.0003: real time    0.0003
    --------------------------------------------
      LOOP:  cpu time    0.4253: real time    0.4260

 eigenvalue-minimisations  :  1456
 total energy-change (2. order) :-0.1030321E-01  (-0.1030271E-01)
 number of electron       8.0000000 magnetization       0.0000000      0.0000000      0.0000000
 augmentation part        8.0000000 magnetization       0.0000000      0.0000000      0.0000000

 Free energy of the ion-electron system (eV)
  ---------------------------------------------------
  alpha Z        PSCENC =         6.67624893
  Ewald energy   TEWEN  =      -213.84743004
  -Hartree energ DENC   =       -21.29595069
  -exchange      EXHF   =         0.00000000
  -V(xc)+E(xc)   XCENC  =       -67.69638834
  PAW double counting   =       241.28716127     -161.37627230
  entropy T*S    EENTRO =         0.00001690
  eigenvalues    EBANDS =       -20.69221884
  atomic energy  EATOM  =       223.97621261
  Solvation  Ediel_sol  =         0.00000000
  ---------------------------------------------------
  free energy    TOTEN  =       -12.96862050 eV

  energy without entropy =      -12.96863740  energy(sigma->0) =      -12.96862613


--------------------------------------------------------------------------------------------------------




--------------------------------------- Iteration      1(   5)  ---------------------------------------


     EDDAV:  cpu time    0.4459: real time    0.4501
       DOS:  cpu time    0.0003: real time    0.0003
    CHARGE:  cpu time    0.0610: real time    0.0611
    MIXING:  cpu time    0.0228: real time    0.0229
    --------------------------------------------
      LOOP:  cpu time    0.5301: real time    0.5344

 eigenvalue-minimisations  :  1624
 total energy-change (2. order) :-0.6376709E-04  (-0.6376681E-04)
 number of electron       8.0000004 magnetization       0.0000000     -0.0000000      0.0000000
 augmentation part       -1.4287627 magnetization       0.0000000      0.0000000      0.0000000

 Broyden mixing:
  rms(total) = 0.57143E+00    rms(broyden)= 0.57142E+00
  rms(prec ) = 0.13580E+01
  weight for this iteration     100.00

 Free energy of the ion-electron system (eV)
  ---------------------------------------------------
  alpha Z        PSCENC =         6.67624893
  Ewald energy   TEWEN  =      -213.84743004
  -Hartree energ DENC   =       -21.29595069
  -exchange      EXHF   =         0.00000000
  -V(xc)+E(xc)   XCENC  =       -67.69638834
  PAW double counting   =       241.28716127     -161.37627230
  entropy T*S    EENTRO =         0.00001690
  eigenvalues    EBANDS =       -20.69228261
  atomic energy  EATOM  =       223.97621261
  Solvation  Ediel_sol  =         0.00000000
  ---------------------------------------------------
  free energy    TOTEN  =       -12.96868427 eV

  energy without entropy =      -12.96870117  energy(sigma->0) =      -12.96868990


--------------------------------------------------------------------------------------------------------




--------------------------------------- Iteration      1(   6)  ---------------------------------------


    POTLOK:  cpu time    0.0313: real time    0.0315
    SETDIJ:  cpu time    0.1348: real time    0.1348
    EDDIAG:  cpu time    0.1083: real time    0.1090
  RMM-DIIS:  cpu time    0.2454: real time    0.2454
    ORTHCH:  cpu time    0.0353: real time    0.0353
       DOS:  cpu time    0.0090: real time    0.0090
    CHARGE:  cpu time    0.0595: real time    0.0614
    MIXING:  cpu time    0.0280: real time    0.0282
    --------------------------------------------
      LOOP:  cpu time    0.6516: real time    0.6547

 eigenvalue-minimisations  :  1260
 total energy-change (2. order) : 0.5999602E+00  (-0.2818640E-01)
 number of electron       8.0000004 magnetization      -0.0000000     -0.0000000     -0.0000000
 augmentation part       -1.4384087 magnetization      -0.0000000     -0.0000000     -0.0000000

 Broyden mixing:
  rms(total) = 0.35698E+00    rms(broyden)= 0.35698E+00
  rms(prec ) = 0.92119E+00
  weight for this iteration     100.00

 eigenvalues of (default mixing * dielectric matrix)
  average eigenvalue GAMMA=   2.2303
  2.2303

 Free energy of the ion-electron system (eV)
  ---------------------------------------------------
  alpha Z        PSCENC =         6.67624893
  Ewald energy   TEWEN  =      -213.84743004
  -Hartree energ DENC   =       -22.66918250
  -exchange      EXHF   =         0.00000000
  -V(xc)+E(xc)   XCENC  =       -67.45708890
  PAW double counting   =       360.84888082     -281.85350907
  entropy T*S    EENTRO =         0.00001690
  eigenvalues    EBANDS =       -18.04287283
  atomic energy  EATOM  =       223.97621261
  Solvation  Ediel_sol  =         0.00000000
  ---------------------------------------------------
  free energy    TOTEN  =       -12.36872407 eV

  energy without entropy =      -12.36874098  energy(sigma->0) =      -12.36872971


--------------------------------------------------------------------------------------------------------




--------------------------------------- Iteration      1(   7)  ---------------------------------------


    POTLOK:  cpu time    0.0296: real time    0.0305
    SETDIJ:  cpu time    0.1287: real time    0.1287
    EDDIAG:  cpu time    0.0992: real time    0.1088
  RMM-DIIS:  cpu time    0.2746: real time    0.2746
    ORTHCH:  cpu time    0.0114: real time    0.0114
       DOS:  cpu time    0.0081: real time    0.0081
    CHARGE:  cpu time    0.0730: real time    0.0730
    MIXING:  cpu time    0.0326: real time    0.0326
    --------------------------------------------
      LOOP:  cpu time    0.6572: real time    0.6677

 eigenvalue-minimisations  :  1271
 total energy-change (2. order) : 0.2695220E+00  (-0.6864530E-01)
 number of electron       8.0000003 magnetization       0.0000000     -0.0000000      0.0000000
 augmentation part       -1.4589284 magnetization       0.0000000     -0.0000000      0.0000000

 Broyden mixing:
  rms(total) = 0.11997E+00    rms(broyden)= 0.11997E+00
  rms(prec ) = 0.25481E+00
  weight for this iteration     100.00

 eigenvalues of (default mixing * dielectric matrix)
  average eigenvalue GAMMA=   1.5374
  0.6803  2.3945

 Free energy of the ion-electron system (eV)
  ---------------------------------------------------
  alpha Z        PSCENC =         6.67624893
  Ewald energy   TEWEN  =      -213.84743004
  -Hartree energ DENC   =       -25.56934834
  -exchange      EXHF   =         0.00000000
  -V(xc)+E(xc)   XCENC  =       -66.94175332
  PAW double counting   =       655.60327821     -578.06198438
  entropy T*S    EENTRO =         0.00000596
  eigenvalues    EBANDS =       -13.93443173
  atomic energy  EATOM  =       223.97621261
  Solvation  Ediel_sol  =         0.00000000
  ---------------------------------------------------
  free energy    TOTEN  =       -12.09920210 eV

  energy without entropy =      -12.09920806  energy(sigma->0) =      -12.09920409


--------------------------------------------------------------------------------------------------------




--------------------------------------- Iteration      1(   8)  ---------------------------------------


    POTLOK:  cpu time    0.0292: real time    0.0301
    SETDIJ:  cpu time    0.1324: real time    0.1324
    EDDIAG:  cpu time    0.1035: real time    0.1078
  RMM-DIIS:  cpu time    0.2735: real time    0.2736
    ORTHCH:  cpu time    0.0023: real time    0.0023
       DOS:  cpu time    0.0149: real time    0.0149
    CHARGE:  cpu time    0.0506: real time    0.0510
    MIXING:  cpu time    0.0359: real time    0.0359
    --------------------------------------------
      LOOP:  cpu time    0.6423: real time    0.6481

 eigenvalue-minimisations  :  1330
 total energy-change (2. order) :-0.5547145E-01  (-0.3265374E-01)
 number of electron       8.0000003 magnetization       0.0000000     -0.0000000      0.0000000
 augmentation part       -1.4623422 magnetization       0.0000000     -0.0000000      0.0000000

 Broyden mixing:
  rms(total) = 0.11240E+00    rms(broyden)= 0.11240E+00
  rms(prec ) = 0.18151E+00
  weight for this iteration     100.00

 eigenvalues of (default mixing * dielectric matrix)
  average eigenvalue GAMMA=   1.7215
  2.2735  2.2735  0.6177

 Free energy of the ion-electron system (eV)
  ---------------------------------------------------
  alpha Z        PSCENC =         6.67624893
  Ewald energy   TEWEN  =      -213.84743004
  -Hartree energ DENC   =       -26.12322856
  -exchange      EXHF   =         0.00000000
  -V(xc)+E(xc)   XCENC  =       -66.83794823
  PAW double counting   =       645.48774687     -567.72451731
  entropy T*S    EENTRO =         0.00001742
  eigenvalues    EBANDS =       -13.76177525
  atomic energy  EATOM  =       223.97621261
  Solvation  Ediel_sol  =         0.00000000
  ---------------------------------------------------
  free energy    TOTEN  =       -12.15467355 eV

  energy without entropy =      -12.15469098  energy(sigma->0) =      -12.15467936


--------------------------------------------------------------------------------------------------------




--------------------------------------- Iteration      1(   9)  ---------------------------------------


    POTLOK:  cpu time    0.0378: real time    0.0396
    SETDIJ:  cpu time    0.1263: real time    0.1263
    EDDIAG:  cpu time    0.1079: real time    0.1084
  RMM-DIIS:  cpu time    0.2674: real time    0.2676
    ORTHCH:  cpu time    0.0103: real time    0.0103
       DOS:  cpu time    0.0090: real time    0.0090
    CHARGE:  cpu time    0.0542: real time    0.0542
    MIXING:  cpu time    0.0278: real time    0.0278
    --------------------------------------------
      LOOP:  cpu time    0.6407: real time    0.6432

 eigenvalue-minimisations  :  1279
 total energy-change (2. order) : 0.2016357E-01  (-0.5477137E-01)
 number of electron       8.0000003 magnetization      -0.0000000     -0.0000000     -0.0000000
 augmentation part       -1.4699501 magnetization      -0.0000000     -0.0000000     -0.0000000

 Broyden mixing:
  rms(total) = 0.68954E-01    rms(broyden)= 0.68953E-01
  rms(prec ) = 0.97978E-01
  weight for this iteration     100.00

 eigenvalues of (default mixing * dielectric matrix)
  average eigenvalue GAMMA=   1.7100
  2.8245  2.8245  0.6465  0.5445

 Free energy of the ion-electron system (eV)
  ---------------------------------------------------
  alpha Z        PSCENC =         6.67624893
  Ewald energy   TEWEN  =      -213.84743004
  -Hartree energ DENC   =       -26.79065761
  -exchange      EXHF   =         0.00000000
  -V(xc)+E(xc)   XCENC  =       -66.71384384
  PAW double counting   =       604.14146303     -525.83989815
  entropy T*S    EENTRO =         0.00002019
  eigenvalues    EBANDS =       -13.73662511
  atomic energy  EATOM  =       223.97621261
  Solvation  Ediel_sol  =         0.00000000
  ---------------------------------------------------
  free energy    TOTEN  =       -12.13450998 eV

  energy without entropy =      -12.13453018  energy(sigma->0) =      -12.13451671


--------------------------------------------------------------------------------------------------------




--------------------------------------- Iteration      1(  10)  ---------------------------------------


    POTLOK:  cpu time    0.0306: real time    0.0308
    SETDIJ:  cpu time    0.1328: real time    0.1328
    EDDIAG:  cpu time    0.1055: real time    0.1060
  RMM-DIIS:  cpu time    0.2356: real time    0.2356
    ORTHCH:  cpu time    0.0377: real time    0.0377
       DOS:  cpu time    0.0003: real time    0.0003
    CHARGE:  cpu time    0.0575: real time    0.0575
    MIXING:  cpu time    0.0300: real time    0.0300
    --------------------------------------------
      LOOP:  cpu time    0.6300: real time    0.6308

 eigenvalue-minimisations  :  1270
 total energy-change (2. order) :-0.4262003E-01  (-0.5343976E-01)
 number of electron       8.0000003 magnetization      -0.0000000     -0.0000000     -0.0000000
 augmentation part       -1.4716562 magnetization      -0.0000000     -0.0000000     -0.0000000

 Broyden mixing:
  rms(total) = 0.54514E-01    rms(broyden)= 0.54514E-01
  rms(prec ) = 0.74227E-01
  weight for this iteration     100.00

 eigenvalues of (default mixing * dielectric matrix)
  average eigenvalue GAMMA=   2.1031
  4.8549  2.7139  1.8243  0.6264  0.4963

 Free energy of the ion-electron system (eV)
  ---------------------------------------------------
  alpha Z        PSCENC =         6.67624893
  Ewald energy   TEWEN  =      -213.84743004
  -Hartree energ DENC   =       -26.98169938
  -exchange      EXHF   =         0.00000000
  -V(xc)+E(xc)   XCENC  =       -66.68956382
  PAW double counting   =       582.90155885     -504.65888479
  entropy T*S    EENTRO =         0.00001349
  eigenvalues    EBANDS =       -13.55358585
  atomic energy  EATOM  =       223.97621261
  Solvation  Ediel_sol  =         0.00000000
  ---------------------------------------------------
  free energy    TOTEN  =       -12.17713001 eV

  energy without entropy =      -12.17714350  energy(sigma->0) =      -12.17713451


--------------------------------------------------------------------------------------------------------




--------------------------------------- Iteration      1(  11)  ---------------------------------------


    POTLOK:  cpu time    0.0344: real time    0.0347
    SETDIJ:  cpu time    0.1264: real time    0.1267
    EDDIAG:  cpu time    0.1063: real time    0.1068
  RMM-DIIS:  cpu time    0.2668: real time    0.2668
    ORTHCH:  cpu time    0.0024: real time    0.0024
       DOS:  cpu time    0.0149: real time    0.0149
    CHARGE:  cpu time    0.0704: real time    0.0705
    MIXING:  cpu time    0.0384: real time    0.0384
    --------------------------------------------
      LOOP:  cpu time    0.6601: real time    0.6611

 eigenvalue-minimisations  :  1281
 total energy-change (2. order) : 0.1782015E+00  (-0.1692924E-01)
 number of electron       8.0000003 magnetization      -0.0000000      0.0000000      0.0000000
 augmentation part       -1.4733581 magnetization      -0.0000000      0.0000000      0.0000000

 Broyden mixing:
  rms(total) = 0.11908E-01    rms(broyden)= 0.11908E-01
  rms(prec ) = 0.41292E-01
  weight for this iteration     100.00

 eigenvalues of (default mixing * dielectric matrix)
  average eigenvalue GAMMA=   2.0579
  5.0906  2.8890  1.7855  1.4599  0.6257  0.4968

 Free energy of the ion-electron system (eV)
  ---------------------------------------------------
  alpha Z        PSCENC =         6.67624893
  Ewald energy   TEWEN  =      -213.84743004
  -Hartree energ DENC   =       -27.06292264
  -exchange      EXHF   =         0.00000000
  -V(xc)+E(xc)   XCENC  =       -66.68727337
  PAW double counting   =       564.81472492     -486.43626526
  entropy T*S    EENTRO =         0.00001691
  eigenvalues    EBANDS =       -13.43224056
  atomic energy  EATOM  =       223.97621261
  Solvation  Ediel_sol  =         0.00000000
  ---------------------------------------------------
  free energy    TOTEN  =       -11.99892849 eV

  energy without entropy =      -11.99894540  energy(sigma->0) =      -11.99893413


--------------------------------------------------------------------------------------------------------




--------------------------------------- Iteration      1(  12)  ---------------------------------------


    POTLOK:  cpu time    0.0363: real time    0.0365
    SETDIJ:  cpu time    0.1281: real time    0.1281
    EDDIAG:  cpu time    0.1045: real time    0.1050
  RMM-DIIS:  cpu time    0.2512: real time    0.2514
    ORTHCH:  cpu time    0.0024: real time    0.0024
       DOS:  cpu time    0.0320: real time    0.0320
    CHARGE:  cpu time    0.0538: real time    0.0538
    MIXING:  cpu time    0.0278: real time    0.0278
    --------------------------------------------
      LOOP:  cpu time    0.6360: real time    0.6370

 eigenvalue-minimisations  :  1339
 total energy-change (2. order) :-0.4183801E-03  (-0.1194611E-03)
 number of electron       8.0000003 magnetization       0.0000000      0.0000000      0.0000000
 augmentation part       -1.4717278 magnetization       0.0000000      0.0000000      0.0000000

 Broyden mixing:
  rms(total) = 0.10985E-01    rms(broyden)= 0.10985E-01
  rms(prec ) = 0.30066E-01
  weight for this iteration     100.00

 eigenvalues of (default mixing * dielectric matrix)
  average eigenvalue GAMMA=   2.1506
  5.0051  2.9937  2.9937  1.9190  1.0197  0.6254  0.4974

 Free energy of the ion-electron system (eV)
  ---------------------------------------------------
  alpha Z        PSCENC =         6.67624893
  Ewald energy   TEWEN  =      -213.84743004
  -Hartree energ DENC   =       -27.01639911
  -exchange      EXHF   =         0.00000000
  -V(xc)+E(xc)   XCENC  =       -66.70611740
  PAW double counting   =       563.86569679     -485.51234496
  entropy T*S    EENTRO =         0.00001690
  eigenvalues    EBANDS =       -13.43523059
  atomic energy  EATOM  =       223.97621261
  Solvation  Ediel_sol  =         0.00000000
  ---------------------------------------------------
  free energy    TOTEN  =       -11.99934687 eV

  energy without entropy =      -11.99936378  energy(sigma->0) =      -11.99935251


--------------------------------------------------------------------------------------------------------




--------------------------------------- Iteration      1(  13)  ---------------------------------------


    POTLOK:  cpu time    0.0354: real time    0.0356
    SETDIJ:  cpu time    0.1310: real time    0.1310
    EDDIAG:  cpu time    0.1056: real time    0.1060
  RMM-DIIS:  cpu time    0.2609: real time    0.2610
    ORTHCH:  cpu time    0.0184: real time    0.0184
       DOS:  cpu time    0.0159: real time    0.0159
    CHARGE:  cpu time    0.0593: real time    0.0596
    MIXING:  cpu time    0.0293: real time    0.0293
    --------------------------------------------
      LOOP:  cpu time    0.6558: real time    0.6568

 eigenvalue-minimisations  :  1274
 total energy-change (2. order) :-0.1890152E-02  (-0.4027707E-03)
 number of electron       8.0000003 magnetization       0.0000000      0.0000000      0.0000000
 augmentation part       -1.4694915 magnetization       0.0000000      0.0000000      0.0000000

 Broyden mixing:
  rms(total) = 0.72156E-02    rms(broyden)= 0.72156E-02
  rms(prec ) = 0.86852E-02
  weight for this iteration     100.00

 eigenvalues of (default mixing * dielectric matrix)
  average eigenvalue GAMMA=   2.0384
  4.9186  3.2254  3.2254  1.8897  1.1140  0.8107  0.6252  0.4979

 Free energy of the ion-electron system (eV)
  ---------------------------------------------------
  alpha Z        PSCENC =         6.67624893
  Ewald energy   TEWEN  =      -213.84743004
  -Hartree energ DENC   =       -27.19466289
  -exchange      EXHF   =         0.00000000
  -V(xc)+E(xc)   XCENC  =       -66.69278494
  PAW double counting   =       575.96584708     -497.63335466
  entropy T*S    EENTRO =         0.00001690
  eigenvalues    EBANDS =       -13.25133001
  atomic energy  EATOM  =       223.97621261
  Solvation  Ediel_sol  =         0.00000000
  ---------------------------------------------------
  free energy    TOTEN  =       -12.00123702 eV

  energy without entropy =      -12.00125393  energy(sigma->0) =      -12.00124266


--------------------------------------------------------------------------------------------------------




--------------------------------------- Iteration      1(  14)  ---------------------------------------


    POTLOK:  cpu time    0.0307: real time    0.0309
    SETDIJ:  cpu time    0.1255: real time    0.1255
    EDDIAG:  cpu time    0.1050: real time    0.1055
  RMM-DIIS:  cpu time    0.2465: real time    0.2465
    ORTHCH:  cpu time    0.0356: real time    0.0369
       DOS:  cpu time    0.0117: real time    0.0117
    CHARGE:  cpu time    0.0788: real time    0.0805
    MIXING:  cpu time    0.0295: real time    0.0296
    --------------------------------------------
      LOOP:  cpu time    0.6633: real time    0.6672

 eigenvalue-minimisations  :  1368
 total energy-change (2. order) :-0.1537251E-02  (-0.5228322E-03)
 number of electron       8.0000003 magnetization      -0.0000000     -0.0000000     -0.0000000
 augmentation part       -1.4696538 magnetization      -0.0000000     -0.0000000     -0.0000000

 Broyden mixing:
  rms(total) = 0.41979E-02    rms(broyden)= 0.41979E-02
  rms(prec ) = 0.53444E-02
  weight for this iteration     100.00

 eigenvalues of (default mixing * dielectric matrix)
  average eigenvalue GAMMA=   2.5536
  7.4238  4.7600  3.5000  2.6011  1.9197  1.0292  0.4982  0.6214  0.6294

 Free energy of the ion-electron system (eV)
  ---------------------------------------------------
  alpha Z        PSCENC =         6.67624893
  Ewald energy   TEWEN  =      -213.84743004
  -Hartree energ DENC   =       -27.22060351
  -exchange      EXHF   =         0.00000000
  -V(xc)+E(xc)   XCENC  =       -66.68987076
  PAW double counting   =       574.76991835     -496.43378208
  entropy T*S    EENTRO =         0.00001690
  eigenvalues    EBANDS =       -13.23348468
  atomic energy  EATOM  =       223.97621261
  Solvation  Ediel_sol  =         0.00000000
  ---------------------------------------------------
  free energy    TOTEN  =       -12.00277428 eV

  energy without entropy =      -12.00279118  energy(sigma->0) =      -12.00277991


--------------------------------------------------------------------------------------------------------




--------------------------------------- Iteration      1(  15)  ---------------------------------------


    POTLOK:  cpu time    0.0294: real time    0.0296
    SETDIJ:  cpu time    0.1330: real time    0.1330
    EDDIAG:  cpu time    0.1044: real time    0.1050
  RMM-DIIS:  cpu time    0.2505: real time    0.2510
    ORTHCH:  cpu time    0.0234: real time    0.0234
       DOS:  cpu time    0.0108: real time    0.0108
    CHARGE:  cpu time    0.0425: real time    0.0425
    MIXING:  cpu time    0.0426: real time    0.0426
    --------------------------------------------
      LOOP:  cpu time    0.6367: real time    0.6380

 eigenvalue-minimisations  :  1365
 total energy-change (2. order) : 0.2376844E-02  (-0.2225989E-03)
 number of electron       8.0000003 magnetization      -0.0000000     -0.0000000     -0.0000000
 augmentation part       -1.4693951 magnetization       0.0000000     -0.0000000     -0.0000000

 Broyden mixing:
  rms(total) = 0.16516E-02    rms(broyden)= 0.16516E-02
  rms(prec ) = 0.26378E-02
  weight for this iteration     100.00

 eigenvalues of (default mixing * dielectric matrix)
  average eigenvalue GAMMA=   2.4153
  8.2791  4.5507  3.1065  2.5081  1.8857  1.0378  1.0378  0.4981  0.6238  0.6258

 Free energy of the ion-electron system (eV)
  ---------------------------------------------------
  alpha Z        PSCENC =         6.67624893
  Ewald energy   TEWEN  =      -213.84743004
  -Hartree energ DENC   =       -27.22836107
  -exchange      EXHF   =         0.00000000
  -V(xc)+E(xc)   XCENC  =       -66.69031231
  PAW double counting   =       572.13884564     -493.79370706
  entropy T*S    EENTRO =         0.00001690
  eigenvalues    EBANDS =       -13.23191103
  atomic energy  EATOM  =       223.97621261
  Solvation  Ediel_sol  =         0.00000000
  ---------------------------------------------------
  free energy    TOTEN  =       -12.00039743 eV

  energy without entropy =      -12.00041433  energy(sigma->0) =      -12.00040307


--------------------------------------------------------------------------------------------------------




--------------------------------------- Iteration      1(  16)  ---------------------------------------


    POTLOK:  cpu time    0.0321: real time    0.0351
    SETDIJ:  cpu time    0.1325: real time    0.1325
    EDDIAG:  cpu time    0.1081: real time    0.1100
  RMM-DIIS:  cpu time    0.2257: real time    0.2260
    ORTHCH:  cpu time    0.0024: real time    0.0024
       DOS:  cpu time    0.0160: real time    0.0160
    CHARGE:  cpu time    0.0537: real time    0.0537
    MIXING:  cpu time    0.0323: real time    0.0323
    --------------------------------------------
      LOOP:  cpu time    0.6027: real time    0.6079

 eigenvalue-minimisations  :  1363
 total energy-change (2. order) : 0.1872197E-04  (-0.1618264E-05)
 number of electron       8.0000003 magnetization       0.0000000      0.0000000      0.0000000
 augmentation part       -1.4692889 magnetization       0.0000000      0.0000000      0.0000000

 Broyden mixing:
  rms(total) = 0.47346E-03    rms(broyden)= 0.47344E-03
  rms(prec ) = 0.11829E-02
  weight for this iteration     100.00

 eigenvalues of (default mixing * dielectric matrix)
  average eigenvalue GAMMA=   2.5863
  8.7420  4.4038  4.4038  2.6832  2.5594  1.8905  1.0091  1.0091  0.4981  0.6249
  0.6249

 Free energy of the ion-electron system (eV)
  ---------------------------------------------------
  alpha Z        PSCENC =         6.67624893
  Ewald energy   TEWEN  =      -213.84743004
  -Hartree energ DENC   =       -27.22580698
  -exchange      EXHF   =         0.00000000
  -V(xc)+E(xc)   XCENC  =       -66.69120988
  PAW double counting   =       571.42173322     -493.07092368
  entropy T*S    EENTRO =         0.00001690
  eigenvalues    EBANDS =       -13.23921980
  atomic energy  EATOM  =       223.97621261
  Solvation  Ediel_sol  =         0.00000000
  ---------------------------------------------------
  free energy    TOTEN  =       -12.00037871 eV

  energy without entropy =      -12.00039561  energy(sigma->0) =      -12.00038434


--------------------------------------------------------------------------------------------------------




--------------------------------------- Iteration      1(  17)  ---------------------------------------


    POTLOK:  cpu time    0.0403: real time    0.0423
    SETDIJ:  cpu time    0.1254: real time    0.1254
    EDDIAG:  cpu time    0.1061: real time    0.1064
  RMM-DIIS:  cpu time    0.2204: real time    0.2204
    ORTHCH:  cpu time    0.0226: real time    0.0226
       DOS:  cpu time    0.0068: real time    0.0068
    --------------------------------------------
      LOOP:  cpu time    0.5214: real time    0.5238

 eigenvalue-minimisations  :  1125
 total energy-change (2. order) :-0.5629962E-05  (-0.6115957E-06)
 number of electron       8.0000003 magnetization       0.0000000      0.0000000      0.0000000
 augmentation part       -1.4692889 magnetization       0.0000000      0.0000000      0.0000000

 Free energy of the ion-electron system (eV)
  ---------------------------------------------------
  alpha Z        PSCENC =         6.67624893
  Ewald energy   TEWEN  =      -213.84743004
  -Hartree energ DENC   =       -27.22886616
  -exchange      EXHF   =         0.00000000
  -V(xc)+E(xc)   XCENC  =       -66.69140866
  PAW double counting   =       571.50545035     -493.15288130
  entropy T*S    EENTRO =         0.00001690
  eigenvalues    EBANDS =       -13.23772696
  atomic energy  EATOM  =       223.97621261
  Solvation  Ediel_sol  =         0.00000000
  ---------------------------------------------------
  free energy    TOTEN  =       -12.00038434 eV

  energy without entropy =      -12.00040124  energy(sigma->0) =      -12.00038997


--------------------------------------------------------------------------------------------------------




 average (electrostatic) potential at core
  the test charge radii are     1.4837  1.0621
  (the norm of the test charge is              1.0000)
       1 -39.2668       2 -50.1035
 
 
 
 E-fermi :   2.9821     XC(G=0):  -8.7844     alpha+bet : -8.8632


 k-point     1 :       0.0000    0.0000    0.0000
  band No.  band energies     occupation 
      1      -8.3025      1.00000
      2      -8.3025      1.00000
      3       2.6415      1.00000
      4       2.6415      1.00000
      5       2.9400      1.00000
      6       2.9400      1.00000
      7       2.9400      1.00000
      8       2.9400      1.00000
      9       3.2009     -0.00000
     10       3.2009     -0.00000
     11       6.8700      0.00000
     12       6.8700      0.00000
     13       7.3309      0.00000
     14       7.3309      0.00000
     15       7.3309      0.00000
     16       7.3309      0.00000
     17      10.7894      0.00000
     18      10.7894      0.00000
     19      12.8395      0.00000
     20      12.8395      0.00000
     21      12.8395      0.00000

 k-point     2 :       0.1429    0.0000    0.0000
  band No.  band energies     occupation 
      1      -8.1203      1.00000
      2      -8.1203      1.00000
      3       0.9660      1.00000
      4       0.9660      1.00000
      5       2.5200      1.00000
      6       2.5200      1.00000
      7       2.7210      1.00000
      8       2.7278      1.00000
      9       4.3679      0.00000
     10       4.3679      0.00000
     11       7.2013      0.00000
     12       7.2013      0.00000
     13       7.4897      0.00000
     14       7.4897      0.00000
     15       7.6503      0.00000
     16       7.6508      0.00000
     17      11.7430      0.00000
     18      11.7431      0.00000
     19      11.8888      0.00000
     20      11.9263      0.00000
     21      11.9264      0.00000

 k-point     3 :       0.2857    0.0000    0.0000
  band No.  band energies     occupation 
      1      -7.6262      1.00000
      2      -7.6262      1.00000
      3      -1.0265      1.00000
      4      -1.0265      1.00000
      5       2.1146      1.00000
      6       2.1146      1.00000
      7       2.3261      1.00000
      8       2.3332      1.00000
      9       4.4588      0.00000
     10       4.4588      0.00000
     11       7.7811      0.00000
     12       7.7811      0.00000
     13       8.0309      0.00000
     14       8.0336      0.00000
     15       8.6312      0.00000
     16       8.6312      0.00000
     17      11.5023      0.00000
     18      11.5023      0.00000
     19      11.9183      0.00000
     20      11.9184      0.00000
     21      11.9244      0.00000

 k-point     4 :       0.4286    0.0000    0.0000
  band No.  band energies     occupation 
      1      -7.0789      1.00000
      2      -7.0789      1.00000
      3      -2.3942      1.00000
      4      -2.3942      1.00000
      5       1.8497      1.00000
      6       1.8497      1.00000
      7       2.0684      1.00000
      8       2.0712      1.00000
      9       4.2773     -0.00000
     10       4.2773     -0.00000
     11       7.8353      0.00000
     12       7.8353      0.00000
     13       8.0220      0.00000
     14       8.0225      0.00000
     15       9.8032      0.00000
     16       9.8032      0.00000
     17      11.7778      0.00000
     18      11.7778      0.00000
     19      13.2642      0.00000
     20      13.2644      0.00000
     21      13.3561      0.00000

 k-point     5 :      -0.4286    0.0000    0.0000
  band No.  band energies     occupation 
      1      -7.0789      1.00000
      2      -7.0789      1.00000
      3      -2.3942      1.00000
      4      -2.3942      1.00000
      5       1.8497      1.00000
      6       1.8497      1.00000
      7       2.0684      1.00000
      8       2.0712      1.00000
      9       4.2773     -0.00000
     10       4.2773     -0.00000
     11       7.8353      0.00000
     12       7.8353      0.00000
     13       8.0220      0.00000
     14       8.0225      0.00000
     15       9.8032      0.00000
     16       9.8032      0.00000
     17      11.7778      0.00000
     18      11.7778      0.00000
     19      13.2642      0.00000
     20      13.2643      0.00000
     21      13.3593      0.00000

 k-point     6 :      -0.2857    0.0000    0.0000
  band No.  band energies     occupation 
      1      -7.6262      1.00000
      2      -7.6262      1.00000
      3      -1.0265      1.00000
      4      -1.0265      1.00000
      5       2.1146      1.00000
      6       2.1146      1.00000
      7       2.3261      1.00000
      8       2.3332      1.00000
      9       4.4588      0.00000
     10       4.4588      0.00000
     11       7.7811      0.00000
     12       7.7811      0.00000
     13       8.0309      0.00000
     14       8.0336      0.00000
     15       8.6312      0.00000
     16       8.6312      0.00000
     17      11.5023      0.00000
     18      11.5023      0.00000
     19      11.9183      0.00000
     20      11.9192      0.00000
     21      11.9245      0.00000

 k-point     7 :      -0.1429    0.0000    0.0000
  band No.  band energies     occupation 
      1      -8.1203      1.00000
      2      -8.1203      1.00000
      3       0.9660      1.00000
      4       0.9660      1.00000
      5       2.5200      1.00000
      6       2.5200      1.00000
      7       2.7210      1.00000
      8       2.7278      1.00000
      9       4.3679      0.00000
     10       4.3679      0.00000
     11       7.2013      0.00000
     12       7.2013      0.00000
     13       7.4897      0.00000
     14       7.4897      0.00000
     15       7.6503      0.00000
     16       7.6508      0.00000
     17      11.7430      0.00000
     18      11.7430      0.00000
     19      11.8887      0.00000
     20      11.9263      0.00000
     21      11.9264      0.00000

 k-point     8 :       0.1429    0.1429    0.0000
  band No.  band energies     occupation 
      1      -8.0587      1.00000
      2      -8.0587      1.00000
      3       0.9247      1.00000
      4       0.9247      1.00000
      5       2.1839      1.00000
      6       2.1839      1.00000
      7       2.3079      1.00000
      8       2.3079      1.00000
      9       5.0210      0.00000
     10       5.0210      0.00000
     11       6.3530      0.00000
     12       6.3530      0.00000
     13       7.9626      0.00000
     14       7.9626      0.00000
     15       8.1846      0.00000
     16       8.1846      0.00000
     17      10.6509      0.00000
     18      10.6509      0.00000
     19      12.2834      0.00000
     20      12.2834      0.00000
     21      13.0626      0.00000

 k-point     9 :       0.2857    0.1429    0.0000
  band No.  band energies     occupation 
      1      -7.6646      1.00000
      2      -7.6622      1.00000
      3      -0.5672      1.00000
      4      -0.5666      1.00000
      5       1.6870      1.00000
      6       1.7137      1.00000
      7       1.8536      1.00000
      8       1.8565      1.00000
      9       5.4292      0.00000
     10       5.4420      0.00000
     11       6.5384      0.00000
     12       6.5962      0.00000
     13       8.4927      0.00000
     14       8.5232      0.00000
     15       8.7330      0.00000
     16       8.7487      0.00000
     17      10.6966      0.00000
     18      10.7027      0.00000
     19      12.9329      0.00000
     20      12.9705      0.00000
     21      13.0222      0.00000

 k-point    10 :       0.4286    0.1429    0.0000
  band No.  band energies     occupation 
      1      -7.1045      1.00000
      2      -7.0968      1.00000
      3      -2.0339      1.00000
      4      -2.0212      1.00000
      5       1.1624      1.00000
      6       1.1889      1.00000
      7       1.6192      1.00000
      8       1.6221      1.00000
      9       5.2867      0.00000
     10       5.2868      0.00000
     11       7.3241      0.00000
     12       7.3455      0.00000
     13       8.6973      0.00000
     14       8.7050      0.00000
     15       9.0799      0.00000
     16       9.1435      0.00000
     17      11.8252      0.00000
     18      11.8824      0.00000
     19      13.1037      0.00000
     20      13.1108      0.00000
     21      13.9401      0.00000

 k-point    11 :      -0.4286    0.1429    0.0000
  band No.  band energies     occupation 
      1      -6.8760      1.00000
      2      -6.8645      1.00000
      3      -2.5080      1.00000
      4      -2.4877      1.00000
      5       0.8565      1.00000
      6       0.8756      1.00000
      7       1.7312      1.00000
      8       1.7366      1.00000
      9       5.2313      0.00000
     10       5.2368      0.00000
     11       7.5201      0.00000
     12       7.5479      0.00000
     13       8.4399      0.00000
     14       8.4423      0.00000
     15      10.0034      0.00000
     16      10.0585      0.00000
     17      12.1568      0.00000
     18      12.2939      0.00000
     19      13.0327      0.00000
     20      13.0617      0.00000
     21      13.2164      0.00000

 k-point    12 :      -0.2857    0.1429    0.0000
  band No.  band energies     occupation 
      1      -7.2938      1.00000
      2      -7.2870      1.00000
      3      -1.6038      1.00000
      4      -1.5907      1.00000
      5       0.9425      1.00000
      6       0.9600      1.00000
      7       2.1127      1.00000
      8       2.1212      1.00000
      9       5.3196      0.00000
     10       5.3374      0.00000
     11       7.7800      0.00000
     12       7.7981      0.00000
     13       8.1651      0.00000
     14       8.1712      0.00000
     15       8.7725      0.00000
     16       8.7896      0.00000
     17      11.3867      0.00000
     18      11.4174      0.00000
     19      12.4596      0.00000
     20      12.5271      0.00000
     21      13.8861      0.00000

 k-point    13 :      -0.1429    0.1429    0.0000
  band No.  band energies     occupation 
      1      -7.8319      1.00000
      2      -7.8297      1.00000
      3      -0.1145      1.00000
      4      -0.1128      1.00000
      5       1.5812      1.00000
      6       1.6050      1.00000
      7       2.5434      1.00000
      8       2.5541      1.00000
      9       5.1269      0.00000
     10       5.1474      0.00000
     11       7.1721      0.00000
     12       7.3273      0.00000
     13       7.6528      0.00000
     14       7.6973      0.00000
     15       8.2860      0.00000
[...]
 -0.000   0.000  -0.000   0.000  -0.000  -0.093  -0.000  -0.000   3.951   0.000  -0.000  -0.165  -0.000  -0.000   6.790   0.000
 -0.000   0.000  -0.000   0.000   6.790   0.000  -0.000   0.000  -0.000   0.165  11.724   0.000  -0.000   0.000  -0.000   0.290
 -0.000   0.000  -0.000   0.000  -0.000  -0.000   6.790   0.000  -0.000   0.000  -0.000  -0.000  11.724   0.000  -0.000   0.000
 -0.000   0.000  -0.000   0.000  -0.000  -0.165  -0.000  -0.000   6.790   0.000  -0.000  -0.290  -0.000  -0.000  11.724   0.000
 -0.000   0.000  -0.000   0.000  -0.000   0.000  -0.004   0.000  -0.000   0.000  -0.000   0.000  -0.007   0.000  -0.000   0.000
 -0.000   0.000  -0.000   0.000   0.000   0.000  -0.000   0.000  -0.004   0.000   0.000   0.000  -0.000   0.000  -0.007   0.000
 -0.000   0.000  -0.000   0.000   0.000   0.000  -0.000   0.000   0.000   0.000   0.000   0.000  -0.000   0.000   0.000   0.000
 -0.000   0.000  -0.000   0.000  -0.004   0.000  -0.000   0.000  -0.000   0.000  -0.007   0.000  -0.000   0.000  -0.000   0.000
 -0.000   0.000  -0.000   0.000   0.000   0.000  -0.000   0.000  -0.000   0.000   0.000   0.000  -0.000   0.000  -0.000   0.000
 pseudopotential strength for first ion, spin component:           2
 -0.000  -0.000  -0.000  -0.000   0.000  -0.000  -0.000  -0.000  -0.000   0.000   0.000  -0.000  -0.000  -0.000  -0.000   0.000
 -0.000  -0.000  -0.000  -0.000   0.000  -0.000  -0.000  -0.000  -0.000   0.000   0.000  -0.000  -0.000  -0.000  -0.000   0.000
  0.000  -0.000   0.000  -0.000  -0.000  -0.000  -0.000  -0.093  -0.000  -0.000  -0.000  -0.000  -0.000  -0.165  -0.000  -0.000
 -0.000  -0.000  -0.000  -0.000  -0.000   0.093   0.000   0.000  -0.093  -0.000  -0.000   0.165   0.000   0.000  -0.165  -0.000
 -0.000   0.000  -0.000   0.000  -0.000  -0.000   0.093  -0.000  -0.000  -0.000  -0.000  -0.000   0.165  -0.000  -0.000  -0.000
  0.000  -0.000   0.000  -0.000  -0.000  -0.000  -0.000  -0.165  -0.000  -0.000  -0.000  -0.000  -0.000  -0.290  -0.000  -0.000
 -0.000  -0.000  -0.000  -0.000  -0.000   0.165   0.000   0.000  -0.165  -0.000  -0.000   0.290   0.000   0.000  -0.290  -0.000
 -0.000   0.000  -0.000   0.000  -0.000  -0.000   0.165  -0.000  -0.000  -0.000  -0.000  -0.000   0.290  -0.000  -0.000  -0.000
 -0.000  -0.000  -0.000  -0.000  -0.000   0.000  -0.000  -0.000   0.000  -0.000  -0.000   0.000  -0.000  -0.000   0.000  -0.000
 -0.000  -0.000  -0.000  -0.000  -0.000  -0.000  -0.000   0.000  -0.000  -0.000  -0.000  -0.000  -0.000   0.000  -0.000  -0.000
  0.000   0.000   0.000   0.000  -0.000   0.000  -0.000  -0.000   0.000  -0.000  -0.000   0.000  -0.000  -0.000   0.000  -0.000
 -0.000  -0.000  -0.000  -0.000  -0.000  -0.000   0.000  -0.000  -0.000  -0.000  -0.000  -0.000   0.000  -0.000  -0.000  -0.000
  0.000  -0.000   0.000  -0.000  -0.000  -0.000  -0.000   0.000   0.000   0.000  -0.000  -0.000  -0.000   0.000   0.000   0.000
 pseudopotential strength for first ion, spin component:           3
 -0.000   0.000  -0.000   0.000   0.000   0.000  -0.000   0.000  -0.000  -0.000   0.000   0.000  -0.000   0.000  -0.000  -0.000
 -0.000   0.000  -0.000   0.000   0.000   0.000  -0.000   0.000  -0.000  -0.000   0.000   0.000  -0.000   0.000  -0.000  -0.000
  0.000   0.000   0.000   0.000  -0.000   0.000  -0.000  -0.093  -0.000   0.000  -0.000   0.000  -0.000  -0.165  -0.000   0.000
 -0.000   0.000  -0.000   0.000  -0.000   0.093   0.000  -0.000   0.093   0.000  -0.000   0.165   0.000  -0.000   0.165   0.000
 -0.000  -0.000  -0.000  -0.000  -0.000   0.000  -0.093   0.000  -0.000   0.000  -0.000   0.000  -0.165   0.000  -0.000   0.000
  0.000   0.000   0.000   0.000  -0.000   0.000  -0.000  -0.165  -0.000   0.000  -0.000   0.000  -0.000  -0.290  -0.000   0.000
 -0.000   0.000  -0.000   0.000  -0.000   0.165   0.000  -0.000   0.165   0.000  -0.000   0.290   0.000  -0.000   0.290   0.000
 -0.000  -0.000  -0.000  -0.000  -0.000   0.000  -0.165   0.000  -0.000   0.000  -0.000   0.000  -0.290   0.000  -0.000   0.000
 -0.000   0.000  -0.000   0.000  -0.000  -0.000  -0.000   0.000   0.000   0.000  -0.000  -0.000  -0.000   0.000   0.000   0.000
 -0.000   0.000  -0.000   0.000  -0.000   0.000  -0.000  -0.000  -0.000   0.000  -0.000   0.000  -0.000  -0.000  -0.000   0.000
  0.000  -0.000   0.000  -0.000  -0.000  -0.000  -0.000   0.000   0.000   0.000  -0.000  -0.000  -0.000   0.000   0.000   0.000
 -0.000   0.000  -0.000   0.000  -0.000   0.000   0.000   0.000  -0.000   0.000  -0.000   0.000   0.000   0.000  -0.000   0.000
  0.000   0.000   0.000   0.000  -0.000   0.000  -0.000  -0.000   0.000  -0.000  -0.000   0.000  -0.000  -0.000   0.000  -0.000
 pseudopotential strength for first ion, spin component:           4
 21.526   0.000  25.753   0.000  -0.000   0.000  -0.000   0.000  -0.000   0.000  -0.000   0.000  -0.000   0.000  -0.000   0.000
 25.753   0.000  30.824   0.000  -0.000   0.000  -0.000   0.000  -0.000   0.000  -0.000   0.000  -0.000   0.000  -0.000   0.000
 -0.000   0.000  -0.000   0.000   3.951   0.000  -0.000   0.000  -0.000  -0.093   6.790   0.000  -0.000   0.000  -0.000  -0.165
 -0.000   0.000  -0.000   0.000  -0.000  -0.000   3.951   0.000  -0.000   0.000  -0.000  -0.000   6.790   0.000  -0.000   0.000
 -0.000   0.000  -0.000   0.000  -0.000   0.093  -0.000  -0.000   3.951   0.000  -0.000   0.165  -0.000  -0.000   6.790   0.000
 -0.000   0.000  -0.000   0.000   6.790   0.000  -0.000   0.000  -0.000  -0.165  11.724   0.000  -0.000   0.000  -0.000  -0.290
 -0.000   0.000  -0.000   0.000  -0.000  -0.000   6.790   0.000  -0.000   0.000  -0.000  -0.000  11.724   0.000  -0.000   0.000
 -0.000   0.000  -0.000   0.000  -0.000   0.165  -0.000  -0.000   6.790   0.000  -0.000   0.290  -0.000  -0.000  11.724   0.000
 -0.000   0.000  -0.000   0.000  -0.000   0.000  -0.004   0.000  -0.000   0.000  -0.000   0.000  -0.007   0.000  -0.000   0.000
 -0.000   0.000  -0.000   0.000  -0.000   0.000  -0.000   0.000  -0.004   0.000  -0.000   0.000  -0.000   0.000  -0.007   0.000
 -0.000   0.000  -0.000   0.000   0.000   0.000  -0.000   0.000   0.000   0.000   0.000   0.000  -0.000   0.000   0.000   0.000
 -0.000   0.000  -0.000   0.000  -0.004   0.000  -0.000   0.000   0.000   0.000  -0.007   0.000  -0.000   0.000   0.000   0.000
  0.000   0.000   0.000   0.000   0.000   0.000   0.000   0.000  -0.000   0.000   0.000   0.000   0.000   0.000  -0.000   0.000
 total augmentation occupancy for first ion, spin component:           1
  6.697  -3.390   0.000   0.000  -0.000   0.000   0.000  -0.000   0.000  -0.000   0.000   0.000   0.000
 -3.390   1.926  -0.000  -0.000   0.000  -0.000   0.000   0.000   0.000   0.000   0.000  -0.000   0.000
 -0.000  -0.000   2.920  -0.000  -0.000  -0.812   0.000   0.000   0.000  -0.000  -0.000  -0.422  -0.000
  0.000  -0.000  -0.000   2.920   0.000   0.000  -0.812  -0.000  -0.422   0.000  -0.000   0.000   0.000
 -0.000  -0.000  -0.000   0.000   2.920  -0.000   0.000  -0.812  -0.000  -0.422   0.000   0.000  -0.000
 -0.000   0.000  -0.812   0.000   0.000   0.241   0.000   0.000   0.000  -0.000   0.000   0.114   0.000
 -0.000   0.000  -0.000  -0.812   0.000   0.000   0.241   0.000   0.114  -0.000   0.000   0.000   0.000
  0.000   0.000   0.000  -0.000  -0.812  -0.000  -0.000   0.241   0.000   0.114   0.000   0.000   0.000
  0.000   0.000   0.000  -0.422  -0.000   0.000   0.114   0.000   0.105   0.000  -0.000  -0.000  -0.000
 -0.000   0.000   0.000  -0.000  -0.422   0.000  -0.000   0.114   0.000   0.105   0.000  -0.000   0.000
  0.000   0.000  -0.000   0.000  -0.000   0.000   0.000   0.000  -0.000   0.000   0.029   0.000  -0.000
 -0.000   0.000  -0.422   0.000   0.000   0.114   0.000   0.000  -0.000  -0.000  -0.000   0.105  -0.000
  0.000   0.000   0.000  -0.000  -0.000   0.000  -0.000  -0.000  -0.000   0.000   0.000  -0.000   0.029
 total augmentation occupancy for first ion, spin component:           2
  0.000   0.000   0.000   0.000   0.000   0.000   0.000   0.000   0.000   0.000   0.000   0.000   0.000
 -0.000   0.000   0.000  -0.000   0.000   0.000  -0.000   0.000   0.000   0.000  -0.000   0.000  -0.000
 -0.000   0.000  -0.000   0.000   0.000   0.000  -0.000  -0.000  -0.000  -0.000  -0.000  -0.000  -0.000
  0.000   0.000  -0.000   0.000   0.000   0.000   0.000   0.000   0.000   0.000   0.000   0.000  -0.000
  0.000   0.000   0.000  -0.000   0.000   0.000  -0.000   0.000   0.000  -0.000  -0.000   0.000  -0.000
  0.000  -0.000  -0.000   0.000   0.000  -0.000  -0.000  -0.000  -0.000  -0.000  -0.000   0.000  -0.000
 -0.000   0.000  -0.000  -0.000   0.000   0.000   0.000   0.000   0.000  -0.000   0.000   0.000  -0.000
  0.000   0.000   0.000   0.000  -0.000   0.000   0.000   0.000   0.000   0.000   0.000   0.000   0.000
  0.000  -0.000  -0.000   0.000  -0.000  -0.000   0.000   0.000   0.000  -0.000   0.000   0.000   0.000
  0.000   0.000  -0.000  -0.000   0.000  -0.000   0.000   0.000   0.000   0.000   0.000  -0.000   0.000
  0.000   0.000  -0.000   0.000  -0.000  -0.000   0.000   0.000  -0.000   0.000  -0.000   0.000  -0.000
 -0.000   0.000  -0.000   0.000   0.000   0.000   0.000   0.000  -0.000   0.000  -0.000   0.000   0.000
  0.000  -0.000   0.000   0.000  -0.000  -0.000   0.000   0.000   0.000   0.000  -0.000  -0.000  -0.000
 total augmentation occupancy for first ion, spin component:           3
  0.000  -0.000   0.000  -0.000  -0.000   0.000   0.000   0.000   0.000   0.000   0.000   0.000  -0.000
 -0.000   0.000   0.000  -0.000   0.000   0.000   0.000  -0.000  -0.000   0.000  -0.000   0.000  -0.000
  0.000   0.000   0.000  -0.000   0.000   0.000  -0.000  -0.000  -0.000  -0.000   0.000  -0.000  -0.000
 -0.000  -0.000  -0.000   0.000   0.000   0.000   0.000  -0.000   0.000  -0.000  -0.000  -0.000   0.000
  0.000  -0.000   0.000  -0.000   0.000  -0.000   0.000   0.000   0.000  -0.000   0.000  -0.000   0.000
  0.000   0.000  -0.000  -0.000   0.000   0.000  -0.000   0.000   0.000   0.000  -0.000   0.000   0.000
  0.000   0.000   0.000  -0.000   0.000   0.000  -0.000  -0.000   0.000  -0.000  -0.000  -0.000  -0.000
  0.000  -0.000   0.000  -0.000   0.000  -0.000   0.000  -0.000   0.000   0.000  -0.000   0.000   0.000
  0.000   0.000   0.000   0.000   0.000   0.000   0.000   0.000  -0.000  -0.000   0.000  -0.000   0.000
 -0.000   0.000   0.000  -0.000   0.000   0.000  -0.000  -0.000   0.000  -0.000  -0.000  -0.000   0.000
  0.000  -0.000   0.000   0.000   0.000  -0.000  -0.000   0.000  -0.000   0.000   0.000  -0.000  -0.000
  0.000   0.000   0.000   0.000   0.000   0.000   0.000  -0.000   0.000   0.000  -0.000   0.000   0.000
  0.000  -0.000  -0.000  -0.000   0.000   0.000   0.000   0.000  -0.000   0.000  -0.000   0.000   0.000
 total augmentation occupancy for first ion, spin component:           4
 -0.000  -0.000   0.000   0.000  -0.000   0.000   0.000   0.000   0.000  -0.000  -0.000  -0.000  -0.000
  0.000   0.000   0.000   0.000  -0.000   0.000   0.000  -0.000   0.000   0.000   0.000  -0.000   0.000
  0.000   0.000   0.000   0.000  -0.000   0.000  -0.000   0.000  -0.000   0.000  -0.000  -0.000  -0.000
  0.000   0.000   0.000   0.000   0.000   0.000   0.000   0.000   0.000   0.000   0.000   0.000   0.000
  0.000   0.000   0.000   0.000  -0.000  -0.000   0.000  -0.000  -0.000  -0.000  -0.000  -0.000   0.000
  0.000   0.000   0.000   0.000  -0.000   0.000  -0.000   0.000   0.000   0.000  -0.000   0.000  -0.000
  0.000   0.000   0.000  -0.000   0.000   0.000  -0.000   0.000   0.000   0.000   0.000   0.000  -0.000
  0.000   0.000   0.000  -0.000  -0.000  -0.000  -0.000  -0.000  -0.000   0.000   0.000  -0.000  -0.000
  0.000   0.000  -0.000   0.000   0.000  -0.000   0.000  -0.000   0.000   0.000   0.000   0.000  -0.000
 -0.000   0.000   0.000   0.000   0.000   0.000   0.000   0.000  -0.000  -0.000   0.000  -0.000   0.000
 -0.000  -0.000   0.000   0.000   0.000  -0.000   0.000  -0.000   0.000  -0.000   0.000  -0.000  -0.000
 -0.000   0.000  -0.000   0.000  -0.000  -0.000   0.000  -0.000   0.000   0.000  -0.000   0.000   0.000
  0.000   0.000   0.000   0.000  -0.000  -0.000  -0.000  -0.000  -0.000  -0.000  -0.000  -0.000   0.000


------------------------ aborting loop because EDIFF is reached ----------------------------------------


    CHARGE:  cpu time    0.0622: real time    0.0622
    FORLOC:  cpu time    0.0009: real time    0.0009
    FORNL :  cpu time    0.0870: real time    0.0870
    STRESS:  cpu time    0.4394: real time    0.4396
    FORCOR:  cpu time    0.0262: real time    0.0262
    FORHAR:  cpu time    0.0032: real time    0.0032
    MIXING:  cpu time    0.2953: real time    0.2953
    OFIELD:  cpu time    0.0001: real time    0.0001

  FORCE on cell =-STRESS in cart. coord.  units (eV):
  Direction    XX          YY          ZZ          XY          YZ          ZX
  --------------------------------------------------------------------------------------
  Alpha Z     6.67625     6.67625     6.67625
  Ewald     -71.28251   -71.28251   -71.28251     0.00000     0.00000     0.00000
  Hartree     9.07650     9.07650     9.07650     0.00000     0.00000     0.00000
  E(xc)     -31.78314   -31.78314   -31.78314    -0.00000    -0.00000    -0.00000
  Local     -35.01660   -35.01660   -35.01660     0.00002     0.00002     0.00002
  n-local    68.70753    69.46369    65.49781     1.71497    -0.60613     0.21147
  augment    -8.30061    -8.30061    -8.30061    -0.00002    -0.00002    -0.00002
  Kinetic    64.91858    64.53926    59.92881     3.65912    -0.92949     0.53662
  Fock        0.00000     0.00000     0.00000     0.00000     0.00000     0.00000
  -------------------------------------------------------------------------------------
  Total       0.38845     0.38845     0.38845     0.00000     0.00000    -0.00000
  in kB      11.19523    11.19523    11.19523     0.00000     0.00000    -0.00000
  external pressure =       11.20 kB  Pullay stress =        0.00 kB


 VOLUME and BASIS-vectors are now :
 -----------------------------------------------------------------------------
  energy-cutoff  :      400.00
  volume of cell :       55.59
      direct lattice vectors                 reciprocal lattice vectors
     0.000000000  3.029200000  3.029200000    -0.165060082  0.165060082  0.165060082
     3.029200000  0.000000000  3.029200000     0.165060082 -0.165060082  0.165060082
     3.029200000  3.029200000  0.000000000     0.165060082  0.165060082 -0.165060082

  length of vectors
     4.283935723  4.283935723  4.283935723     0.285892448  0.285892448  0.285892448


 FORCES acting on ions
    electron-ion (+dipol)            ewald-force                    non-local-force                 convergence-correction
 -----------------------------------------------------------------------------------------------
   0.461E-06 0.461E-06 0.461E-06   -.437E-14 -.349E-14 -.380E-14   -.694E-16 -.763E-16 -.520E-16   -.479E-10 -.479E-10 -.479E-10
   -.329E-06 -.329E-06 -.329E-06   0.437E-14 0.340E-14 0.349E-14   0.763E-16 0.902E-16 0.114E-15   0.332E-08 0.332E-08 0.332E-08
 -----------------------------------------------------------------------------------------------
   0.132E-06 0.132E-06 0.132E-06   -.623E-17 -.883E-16 -.308E-15   0.694E-17 0.139E-16 0.625E-16   0.328E-08 0.328E-08 0.328E-08
 
 
 POSITION                                       TOTAL-FORCE (eV/Angst)
 -----------------------------------------------------------------------------------
      0.00000      0.00000      0.00000         0.000000      0.000000      0.000000
      4.54380      4.54380      4.54380        -0.000000     -0.000000     -0.000000
 -----------------------------------------------------------------------------------
    total drift:                                0.000000      0.000000      0.000000


--------------------------------------------------------------------------------------------------------



  FREE ENERGIE OF THE ION-ELECTRON SYSTEM (eV)
  ---------------------------------------------------
  free  energy   TOTEN  =       -12.00038434 eV

  energy  without entropy=      -12.00040124  energy(sigma->0) =      -12.00038997
 


--------------------------------------------------------------------------------------------------------


    POTLOK:  cpu time    0.1643: real time    0.1645


--------------------------------------------------------------------------------------------------------


 writing wavefunctions
     LOOP+:  cpu time   12.0660: real time   12.4590
    4ORBIT:  cpu time    0.0000: real time    0.0000

 Spin-Orbit-Coupling matrix elements

 Ion:    1  E_soc:     -0.0327479
 l=   1
     0.0000000    -0.0052687    -0.0052687
    -0.0052687     0.0000000    -0.0052687
    -0.0052687    -0.0052687     0.0000000
 l=   2
     0.0000000    -0.0000731     0.0000000    -0.0000731    -0.0001163
    -0.0000731     0.0000000    -0.0000872    -0.0000731    -0.0000291
     0.0000000    -0.0000872     0.0000000    -0.0000872     0.0000000
    -0.0000731    -0.0000731    -0.0000872     0.0000000    -0.0000291
    -0.0001163    -0.0000291     0.0000000    -0.0000291     0.0000000
 l=   3
     0.0000000     0.0000000     0.0000000     0.0000000     0.0000000     0.0000000     0.0000000
     0.0000000     0.0000000     0.0000000     0.0000000     0.0000000     0.0000000     0.0000000
     0.0000000     0.0000000     0.0000000     0.0000000     0.0000000     0.0000000     0.0000000
     0.0000000     0.0000000     0.0000000     0.0000000     0.0000000     0.0000000     0.0000000
     0.0000000     0.0000000     0.0000000     0.0000000     0.0000000     0.0000000     0.0000000
     0.0000000     0.0000000     0.0000000     0.0000000     0.0000000     0.0000000     0.0000000
     0.0000000     0.0000000     0.0000000     0.0000000     0.0000000     0.0000000     0.0000000

 Ion:    2  E_soc:     -0.0243450
 l=   1
     0.0000000    -0.0040588    -0.0040588
    -0.0040588     0.0000000    -0.0040588
    -0.0040588    -0.0040588     0.0000000
 l=   2
     0.0000000     0.0000004     0.0000000     0.0000004     0.0000008
     0.0000004     0.0000000     0.0000006     0.0000004     0.0000002
     0.0000000     0.0000006     0.0000000     0.0000006     0.0000000
     0.0000004     0.0000004     0.0000006     0.0000000     0.0000002
     0.0000008     0.0000002     0.0000000     0.0000002     0.0000000
 l=   3
     0.0000000     0.0000000     0.0000000     0.0000000     0.0000000     0.0000000     0.0000000
     0.0000000     0.0000000     0.0000000     0.0000000     0.0000000     0.0000000     0.0000000
     0.0000000     0.0000000     0.0000000     0.0000000     0.0000000     0.0000000     0.0000000
     0.0000000     0.0000000     0.0000000     0.0000000     0.0000000     0.0000000     0.0000000
     0.0000000     0.0000000     0.0000000     0.0000000     0.0000000     0.0000000     0.0000000
     0.0000000     0.0000000     0.0000000     0.0000000     0.0000000     0.0000000     0.0000000
     0.0000000     0.0000000     0.0000000     0.0000000     0.0000000     0.0000000     0.0000000

 total amount of memory used by VASP MPI-rank0    38738. kBytes
=======================================================================

   base      :      30000. kBytes
   nonl-proj :       3248. kBytes
   fftplans  :        830. kBytes
   grid      :       3096. kBytes
   one-center:         32. kBytes
   wavefun   :       1532. kBytes
 
  
  
 General timing and accounting informations for this job:
 ========================================================
  
                  Total CPU time used (sec):       17.031
                            User time (sec):       16.033
                          System time (sec):        0.998
                         Elapsed time (sec):       17.725
  
                   Maximum memory used (kb):       65644.
                   Average memory used (kb):           0.
  
                          Minor page faults:        21449
                          Major page faults:            0
                 Voluntary context switches:         2090
