 vasp.5.4.4.18Apr17-6-g9f103f2a35 (build Nov 08 2017 12:56:59) complex          
  
 executed on             LinuxIFC date 2020.06.22  23:33:46
 running on   56 total cores
 distrk:  each k-point on   56 cores,    1 groups
 distr:  one band on NCORES_PER_BAND=   1 cores,   56 groups


--------------------------------------------------------------------------------------------------------


 INCAR:
 POTCAR:    PAW_PBE In 08Apr2002                  
 POTCAR:    PAW_PBE As 22Sep2009                  

 ----------------------------------------------------------------------------- 
|                                                                             |
|           W    W    AA    RRRRR   N    N  II  N    N   GGGG   !!!           |
|           W    W   A  A   R    R  NN   N  II  NN   N  G    G  !!!           |
|           W    W  A    A  R    R  N N  N  II  N N  N  G       !!!           |
|           W WW W  AAAAAA  RRRRR   N  N N  II  N  N N  G  GGG   !            |
|           WW  WW  A    A  R   R   N   NN  II  N   NN  G    G                |
|           W    W  A    A  R    R  N    N  II  N    N   GGGG   !!!           |
|                                                                             |
|      For optimal performance we recommend to set                            |
|        NCORE= 4 - approx SQRT( number of cores)                             |
|      NCORE specifies how many cores store one orbital (NPAR=cpu/NCORE).     |
|      This setting can  greatly improve the performance of VASP for DFT.     |
|      The default,   NCORE=1            might be grossly inefficient         |
|      on modern multi-core architectures or massively parallel machines.     |
|      Do your own testing !!!!                                               |
|      Unfortunately you need to use the default for GW and RPA calculations. |
|      (for HF NCORE is supported but not extensively tested yet)             |
|                                                                             |
 ----------------------------------------------------------------------------- 

 POTCAR:    PAW_PBE In 08Apr2002                  
   VRHFIN =In: s2p1                                                             
   LEXCH  = PE                                                                  
   EATOM  =    53.7908 eV,    3.9535 Ry                                         
                                                                                
   TITEL  = PAW_PBE In 08Apr2002                                                
   LULTRA =        F    use ultrasoft PP ?                                      
   IUNSCR =        1    unscreen: 0-lin 1-nonlin 2-no                           
   RPACOR =    2.400    partial core radius                                     
   POMASS =  114.820; ZVAL   =    3.000    mass and valenz                      
   RCORE  =    3.100    outmost cutoff radius                                   
   RWIGS  =    3.170; RWIGS  =    1.677    wigner-seitz radius (au A)           
   ENMAX  =   95.934; ENMIN  =   71.951 eV                                      
   ICORE  =        3    local potential                                         
   LCOR   =        T    correct aug charges                                     
   LPAW   =        T    paw PP                                                  
   EAUG   =  237.125                                                            
   DEXC   =    0.000                                                            
   RMAX   =    3.168    core radius for proj-oper                               
   RAUG   =    1.300    factor for augmentation sphere                          
   RDEP   =    3.187    radius for radial grids                                 
   RDEPT  =    2.711    core radius for aug-charge                              
                                                                                
   Atomic configuration                                                         
   13 entries                                                                   
     n  l   j            E        occ.                                          
     1  0  0.50    -27747.9169   2.0000                                         
     2  0  0.50     -4154.4438   2.0000                                         
     2  1  1.50     -3728.4305   6.0000                                         
     3  0  0.50      -788.3680   2.0000                                         
     3  1  1.50      -648.9215   6.0000                                         
     3  2  2.50      -432.5893  10.0000                                         
     4  0  0.50      -119.6363   2.0000                                         
     4  1  1.50       -78.1086   6.0000                                         
     4  2  2.50       -18.6227  10.0000                                         
     5  0  0.50        -8.2107   2.0000                                         
     5  1  0.50        -2.5185   1.0000                                         
     5  2  2.50        -1.3606   0.0000                                         
     4  3  2.50        -2.7212   0.0000                                         
   Description                                                                  
     l       E           TYP  RCUT    TYP  RCUT                                 
     0     -8.2107306     23  3.100                                             
     0     -6.1485975     23  3.100                                             
     1     -2.5184867     23  3.100                                             
     1      3.2427302     23  3.100                                             
     2     -1.3605826     23  3.100                                             
     3     -1.3605826     23  3.100                                             
  local pseudopotential read in
  partial core-charges read in
  partial kinetic energy density read in
  atomic valenz-charges read in
  non local Contribution for L=           0  read in
    real space projection operators read in
  non local Contribution for L=           0  read in
    real space projection operators read in
  non local Contribution for L=           1  read in
    real space projection operators read in
  non local Contribution for L=           1  read in
    real space projection operators read in
  non local Contribution for L=           2  read in
    real space projection operators read in
    PAW grid and wavefunctions read in
 
   number of l-projection  operators is LMAX  =           5
   number of lm-projection operators is LMMAX =          13
 
 POTCAR:    PAW_PBE As 22Sep2009                  
   VRHFIN =As: s2p3                                                             
   LEXCH  = PE                                                                  
   EATOM  =   170.1867 eV,   12.5084 Ry                                         
                                                                                
   TITEL  = PAW_PBE As 22Sep2009                                                
   LULTRA =        F    use ultrasoft PP ?                                      
   IUNSCR =        1    unscreen: 0-lin 1-nonlin 2-no                           
   RPACOR =    1.900    partial core radius                                     
   POMASS =   74.922; ZVAL   =    5.000    mass and valenz                      
   RCORE  =    2.100    outmost cutoff radius                                   
   RWIGS  =    2.300; RWIGS  =    1.217    wigner-seitz radius (au A)           
   ENMAX  =  208.702; ENMIN  =  156.526 eV                                      
   ICORE  =        3    local potential                                         
   LCOR   =        T    correct aug charges                                     
   LPAW   =        T    paw PP                                                  
   EAUG   =  462.758                                                            
   DEXC   =    0.000                                                            
   RMAX   =    2.144    core radius for proj-oper                               
   RAUG   =    1.300    factor for augmentation sphere                          
   RDEP   =    2.140    radius for radial grids                                 
   RDEPT  =    1.956    core radius for aug-charge                              
                                                                                
   Atomic configuration                                                         
   10 entries                                                                   
     n  l   j            E        occ.                                          
     1  0  0.50    -11718.0418   2.0000                                         
     2  0  0.50     -1486.5454   2.0000                                         
     2  1  1.50     -1303.3889   6.0000                                         
     3  0  0.50      -190.2849   2.0000                                         
     3  1  1.50      -133.6555   6.0000                                         
     3  2  2.50       -40.6443  10.0000                                         
     4  0  0.50       -14.4936   2.0000                                         
     4  1  0.50        -5.1947   3.0000                                         
     4  2  1.50        -5.4423   0.0000                                         
     4  3  2.50        -5.4423   0.0000                                         
   Description                                                                  
     l       E           TYP  RCUT    TYP  RCUT                                 
     0    -14.4935570     23  2.100                                             
     0    -11.9212055     23  2.100                                             
     1     -5.1947127     23  2.100                                             
     1     27.2116520     23  2.100                                             
     2     -5.4423304     23  2.100                                             
     3     -1.3605826      7  2.100                                             
  local pseudopotential read in
  partial core-charges read in
  partial kinetic energy density read in
  atomic valenz-charges read in
  non local Contribution for L=           0  read in
    real space projection operators read in
  non local Contribution for L=           0  read in
    real space projection operators read in
  non local Contribution for L=           1  read in
    real space projection operators read in
  non local Contribution for L=           1  read in
    real space projection operators read in
  non local Contribution for L=           2  read in
    real space projection operators read in
    PAW grid and wavefunctions read in
 
   number of l-projection  operators is LMAX  =           5
   number of lm-projection operators is LMMAX =          13
 
  PAW_PBE In 08Apr2002                  :
 energy of atom  1       EATOM=  -53.7908
 kinetic energy error for atom=    0.0001 (will be added to EATOM!!)
  PAW_PBE As 22Sep2009                  :
 energy of atom  2       EATOM= -170.1867
 kinetic energy error for atom=    0.0022 (will be added to EATOM!!)
 
 
 POSCAR: In As                                   
  positions in direct lattice
  No initial velocities read in
 exchange correlation table for  LEXCH =        8
   RHO(1)=    0.500       N(1)  =     2000
   RHO(2)=  100.500       N(2)  =     4000
 


--------------------------------------------------------------------------------------------------------


 ion  position               nearest neighbor table
   1  0.000  0.000  0.000-   2 2.62   2 2.62   2 2.62   2 2.62
   2  0.250  0.250  0.250-   1 2.62   1 2.62   1 2.62   1 2.62
 
  LATTYP: Found a face centered cubic cell.
 ALAT       =     6.0584000000
  
  Lattice vectors:
  
 A1 = (   0.0000000000,   3.0292000000,   3.0292000000)
 A2 = (   3.0292000000,   0.0000000000,   3.0292000000)
 A3 = (   3.0292000000,   3.0292000000,   0.0000000000)


Analysis of symmetry for initial positions (statically):
=====================================================================
 Subroutine PRICEL returns:
 Original cell was already a primitive cell.
 

 Routine SETGRP: Setting up the symmetry group for a 
 face centered cubic supercell.


 Subroutine GETGRP returns: Found 24 space group operations
 (whereof 24 operations were pure point group operations)
 out of a pool of 48 trial point group operations.


The static configuration has the point symmetry T_d .


Analysis of symmetry for dynamics (positions and initial velocities):
=====================================================================
 Subroutine PRICEL returns:
 Original cell was already a primitive cell.
 

 Routine SETGRP: Setting up the symmetry group for a 
 face centered cubic supercell.


 Subroutine GETGRP returns: Found 24 space group operations
 (whereof 24 operations were pure point group operations)
 out of a pool of 48 trial point group operations.


The dynamic configuration has the point symmetry T_d .


Analysis of structural, dynamic, and magnetic symmetry:
=====================================================================
 Subroutine PRICEL returns:
 Original cell was already a primitive cell.
 

 Routine SETGRP: Setting up the symmetry group for a 
 face centered cubic supercell.


 Subroutine GETGRP returns: Found 24 space group operations
 (whereof 24 operations were pure point group operations)
 out of a pool of 48 trial point group operations.


The (compounded) configuration has the point symmetry T_d .


 Subroutine INISYM returns: Found 24 space group operations
 (whereof 24 operations are pure point group operations),
 and found     1 'primitive' translations

 
 
 KPOINTS: KPOINTS created by Atomic Simulation Env

Automatic generation of k-mesh.
Space group operators:
 irot       det(A)        alpha          n_x          n_y          n_z        tau_x        tau_y        tau_z
    1     1.000000     0.000000     1.000000     0.000000     0.000000     0.000000     0.000000     0.000000
    2     1.000000   120.000000    -0.577350    -0.577350    -0.577350     0.000000     0.000000     0.000000
    3     1.000000   120.000000     0.577350     0.577350     0.577350     0.000000     0.000000     0.000000
    4    -1.000000    90.000000     0.000000     0.000000    -1.000000     0.000000     0.000000     0.000000
    5    -1.000000   180.000000     0.000000     0.707107     0.707107     0.000000     0.000000     0.000000
    6    -1.000000    90.000000     0.000000     1.000000     0.000000     0.000000     0.000000     0.000000
    7     1.000000   180.000000     0.000000     0.000000     1.000000     0.000000     0.000000     0.000000
    8     1.000000   120.000000    -0.577350     0.577350     0.577350     0.000000     0.000000     0.000000
    9     1.000000   120.000000    -0.577350     0.577350    -0.577350     0.000000     0.000000     0.000000
   10    -1.000000    90.000000     0.000000     0.000000     1.000000     0.000000     0.000000     0.000000
   11    -1.000000    90.000000    -1.000000     0.000000     0.000000     0.000000     0.000000     0.000000
   12    -1.000000   180.000000     0.707107     0.000000     0.707107     0.000000     0.000000     0.000000
   13     1.000000   120.000000     0.577350    -0.577350     0.577350     0.000000     0.000000     0.000000
   14     1.000000   120.000000    -0.577350    -0.577350     0.577350     0.000000     0.000000     0.000000
   15     1.000000   180.000000     1.000000     0.000000     0.000000     0.000000     0.000000     0.000000
   16    -1.000000    90.000000     0.000000    -1.000000     0.000000     0.000000     0.000000     0.000000
   17    -1.000000   180.000000     0.707107     0.707107     0.000000     0.000000     0.000000     0.000000
   18    -1.000000    90.000000     1.000000     0.000000     0.000000     0.000000     0.000000     0.000000
   19     1.000000   120.000000     0.577350    -0.577350    -0.577350     0.000000     0.000000     0.000000
   20     1.000000   180.000000     0.000000     1.000000     0.000000     0.000000     0.000000     0.000000
   21     1.000000   120.000000     0.577350     0.577350    -0.577350     0.000000     0.000000     0.000000
   22    -1.000000   180.000000     0.000000    -0.707107     0.707107     0.000000     0.000000     0.000000
   23    -1.000000   180.000000     0.707107    -0.707107     0.000000     0.000000     0.000000     0.000000
   24    -1.000000   180.000000     0.707107     0.000000    -0.707107     0.000000     0.000000     0.000000
 
 Subroutine IBZKPT returns following result:
 ===========================================
 
 Found     22 irreducible k-points:
 
 Following reciprocal coordinates:
            Coordinates               Weight
  0.000000  0.000000  0.000000      1.000000
  0.166667  0.000000  0.000000      4.000000
  0.333333  0.000000  0.000000      4.000000
  0.500000  0.000000  0.000000      4.000000
 -0.333333  0.000000  0.000000      4.000000
 -0.166667  0.000000  0.000000      4.000000
  0.166667  0.166667  0.000000      6.000000
  0.333333  0.166667  0.000000     12.000000
  0.500000  0.166667  0.000000     12.000000
 -0.333333  0.166667  0.000000     12.000000
 -0.166667  0.166667  0.000000     12.000000
  0.333333  0.333333  0.000000      6.000000
  0.500000  0.333333  0.000000     12.000000
 -0.333333  0.333333  0.000000     12.000000
 -0.166667  0.333333  0.000000     12.000000
  0.500000  0.500000  0.000000      3.000000
 -0.333333  0.500000  0.000000     12.000000
 -0.166667  0.500000  0.000000     12.000000
 -0.166667 -0.333333  0.000000     12.000000
  0.500000  0.333333  0.166667     24.000000
 -0.333333  0.333333  0.166667     24.000000
 -0.333333  0.500000  0.166667     12.000000
 
 Following cartesian coordinates:
            Coordinates               Weight
  0.000000  0.000000  0.000000      1.000000
 -0.027510  0.027510  0.027510      4.000000
 -0.055020  0.055020  0.055020      4.000000
 -0.082530  0.082530  0.082530      4.000000
  0.055020 -0.055020 -0.055020      4.000000
  0.027510 -0.027510 -0.027510      4.000000
  0.000000  0.000000  0.055020      6.000000
 -0.027510  0.027510  0.082530     12.000000
 -0.055020  0.055020  0.110040     12.000000
  0.082530 -0.082530 -0.027510     12.000000
  0.055020 -0.055020  0.000000     12.000000
  0.000000  0.000000  0.110040      6.000000
 -0.027510  0.027510  0.137550     12.000000
  0.110040 -0.110040  0.000000     12.000000
  0.082530 -0.082530  0.027510     12.000000
  0.000000  0.000000  0.165060      3.000000
  0.137550 -0.137550  0.027510     12.000000
  0.110040 -0.110040  0.055020     12.000000
 -0.027510  0.027510 -0.082530     12.000000
  0.000000  0.055020  0.110040     24.000000
  0.137550 -0.082530 -0.027510     24.000000
  0.165060 -0.110040 -0.000000     12.000000
 


--------------------------------------------------------------------------------------------------------




 Dimension of arrays:
   k-points           NKPTS =     22   k-points in BZ     NKDIM =     22   number of bands    NBANDS=     56
   number of dos      NEDOS =    301   number of ions     NIONS =      2
   non local maximal  LDIM  =      5   non local SUM 2l+1 LMDIM =     13
   total plane-waves  NPLWV =   5832
   max r-space proj   IRMAX =      1   max aug-charges    IRDMAX=  12033
   dimension x,y,z NGX =    18 NGY =   18 NGZ =   18
   dimension x,y,z NGXF=    36 NGYF=   36 NGZF=   36
   support grid    NGXF=    36 NGYF=   36 NGZF=   36
   ions per type =               1   1
   NGX,Y,Z   is equivalent  to a cutoff of   6.99,  6.99,  6.99 a.u.
   NGXF,Y,Z  is equivalent  to a cutoff of  13.97, 13.97, 13.97 a.u.

 SYSTEM =  unknown system                          
 POSCAR =  In As                                   

 Startparameter for this run:
   NWRITE =      2    write-flag & timer
   PREC   = n         normal or accurate (medium, high low for compatibility)
   ISTART =      0    job   : 0-new  1-cont  2-samecut
   ICHARG =      2    charge: 1-file 2-atom 10-const
   ISPIN  =      1    spin polarized calculation?
   LNONCOLLINEAR =      T non collinear calculations
   LSORBIT =      T    spin-orbit coupling
   INIWAV =      1    electr: 0-lowe 1-rand  2-diag
   LASPH  =      F    aspherical Exc in radial PAW
   METAGGA=      F    non-selfconsistent MetaGGA calc.

 Electronic Relaxation 1
   ENCUT  =  300.0 eV  22.05 Ry    4.70 a.u.   6.05  6.05  6.05*2*pi/ulx,y,z
   ENINI  =  300.0     initial cutoff
   ENAUG  =  462.8 eV  augmentation charge cutoff
   NELM   =     60;   NELMIN=  2; NELMDL= -5     # of ELM steps 
   EDIFF  = 0.1E-03   stopping-criterion for ELM
   LREAL  =      F    real-space projection
   NLSPLINE    = F    spline interpolate recip. space projectors
   LCOMPAT=      F    compatible to vasp.4.4
   GGA_COMPAT  = T    GGA compatible to vasp.4.4-vasp.4.6
   LMAXPAW     = -100 max onsite density
   LMAXMIX     =    4 max onsite mixed and CHGCAR
   VOSKOWN=      0    Vosko Wilk Nusair interpolation
   ROPT   =    0.00000   0.00000
 Ionic relaxation
   EDIFFG = 0.1E-02   stopping-criterion for IOM
   NSW    =      0    number of steps for IOM
   NBLOCK =      1;   KBLOCK =      1    inner block; outer block 
   IBRION =     -1    ionic relax: 0-MD 1-quasi-New 2-CG
   NFREE  =      0    steps in history (QN), initial steepest desc. (CG)
   ISIF   =      2    stress and relaxation
   IWAVPR =     10    prediction:  0-non 1-charg 2-wave 3-comb
   ISYM   =      2    0-nonsym 1-usesym 2-fastsym
   LCORR  =      T    Harris-Foulkes like correction to forces

   POTIM  = 0.5000    time-step for ionic-motion
   TEIN   =    0.0    initial temperature
   TEBEG  =    0.0;   TEEND  =   0.0 temperature during run
   SMASS  =  -3.00    Nose mass-parameter (am)
   estimated Nose-frequenzy (Omega)   =  0.10E-29 period in steps =****** mass=  -0.419E-27a.u.
   SCALEE = 1.0000    scale energy and forces
   NPACO  =    256;   APACO  = 16.0  distance and # of slots for P.C.
   PSTRESS=    0.0 pullay stress

  Mass of Ions in am
   POMASS = 114.82 74.92
  Ionic Valenz
   ZVAL   =   3.00  5.00
  Atomic Wigner-Seitz radii
   RWIGS  =  -1.00 -1.00
  virtual crystal weights 
   VCA    =   1.00  1.00
   NELECT =       8.0000    total number of electrons
   NUPDOWN=      -1.0000    fix difference up-down

 DOS related values:
   EMIN   =  10.00;   EMAX   =-10.00  energy-range for DOS
   EFERMI =   0.00
   ISMEAR =     1;   SIGMA  =   0.05  broadening in eV -4-tet -1-fermi 0-gaus

 Electronic relaxation 2 (details)
   IALGO  =     53    algorithm
   LDIAG  =      T    sub-space diagonalisation (order eigenvalues)
   LSUBROT=      F    optimize rotation matrix (better conditioning)
   TURBO    =      0    0=normal 1=particle mesh
   IRESTART =      0    0=no restart 2=restart with 2 vectors
   NREBOOT  =      0    no. of reboots
   NMIN     =      0    reboot dimension
   EREF     =   0.00    reference energy to select bands
   IMIX   =      4    mixing-type and parameters
     AMIX     =   0.40;   BMIX     =  1.00
     AMIX_MAG =   1.60;   BMIX_MAG =  1.00
     AMIN     =   0.10
     WC   =   100.;   INIMIX=   1;  MIXPRE=   1;  MAXMIX= -45

 Intra band minimization:
   WEIMIN = 0.0000     energy-eigenvalue tresh-hold
   EBREAK =  0.45E-06  absolut break condition
   DEPER  =   0.30     relativ break condition  

   TIME   =   0.40     timestep for ELM

  volume/ion in A,a.u.               =      27.80       187.58
  Fermi-wavevector in a.u.,A,eV,Ry     =   0.857894  1.621184 10.013641  0.735982
  Thomas-Fermi vector in A             =   1.975016
 
 Write flags
   LWAVE        =      T    write WAVECAR
   LDOWNSAMPLE  =      F    k-point downsampling of WAVECAR
   LCHARG       =      T    write CHGCAR
   LVTOT        =      F    write LOCPOT, total local potential
   LVHAR        =      F    write LOCPOT, Hartree potential only
   LELF         =      F    write electronic localiz. function (ELF)
   LORBIT       =      0    0 simple, 1 ext, 2 COOP (PROOUT), +10 PAW based schemes


 Dipole corrections
   LMONO  =      F    monopole corrections only (constant potential shift)
   LDIPOL =      F    correct potential (dipole corrections)
   IDIPOL =      0    1-x, 2-y, 3-z, 4-all directions 
   EPSILON=  1.0000000 bulk dielectric constant

 LDA+U is selected, type is set to LDAUTYPE =  2
   angular momentum for each species LDAUL =     1    1
   U (eV)           for each species LDAUU =   2.3-10.0
   J (eV)           for each species LDAUJ =   0.0  0.0
 Exchange correlation treatment:
   GGA     =    PE    GGA type
   LEXCH   =     8    internal setting for exchange type
   VOSKOWN=      0    Vosko Wilk Nusair interpolation
   LHFCALC =     F    Hartree Fock is set to
   LHFONE  =     F    Hartree Fock one center treatment
   AEXX    =    0.0000 exact exchange contribution

 Linear response parameters
   LEPSILON=     F    determine dielectric tensor
   LRPA    =     F    only Hartree local field effects (RPA)
   LNABLA  =     F    use nabla operator in PAW spheres
   LVEL    =     F    velocity operator in full k-point grid
   LINTERFAST=   F  fast interpolation
   KINTER  =     0    interpolate to denser k-point grid
   CSHIFT  =0.1000    complex shift for real part using Kramers Kronig
   OMEGAMAX=  -1.0    maximum frequency
   DEG_THRESHOLD= 0.2000000E-02 threshold for treating states as degnerate
   RTIME   =   -0.100 relaxation time in fs
  (WPLASMAI=    0.000 imaginary part of plasma frequency in eV, 0.658/RTIME)
   DFIELD  = 0.0000000 0.0000000 0.0000000 field for delta impulse in time
 
 Orbital magnetization related:
   ORBITALMAG=     F  switch on orbital magnetization
   LCHIMAG   =     F  perturbation theory with respect to B field
   DQ        =  0.001000  dq finite difference perturbation B field
   LLRAUG    =     F  two centre corrections for induced B field



--------------------------------------------------------------------------------------------------------


 Static calculation
 charge density and potential will be updated during run
 non collinear spin polarized calculation
 Conjugate gradient for all bands (Freysoldt, et al. PRB 79, 241103 (2009))
 perform sub-space diagonalisation
    before iterative eigenvector-optimisation
 modified Broyden-mixing scheme, WC =      100.0
 initial mixing is a Kerker type mixing with AMIX =  0.4000 and BMIX =      1.0000
 Hartree-type preconditioning will be used
 using additional bands           52
 reciprocal scheme for non local part
 use partial core corrections
 no Harris-corrections to forces 
 use gradient corrections 
 use of overlap-Matrix (Vanderbilt PP)
 Methfessel and Paxton  Order N= 1 SIGMA  =   0.05


--------------------------------------------------------------------------------------------------------


  energy-cutoff  :      300.00
  volume of cell :       55.59
      direct lattice vectors                 reciprocal lattice vectors
     0.000000000  3.029200000  3.029200000    -0.165060082  0.165060082  0.165060082
     3.029200000  0.000000000  3.029200000     0.165060082 -0.165060082  0.165060082
     3.029200000  3.029200000  0.000000000     0.165060082  0.165060082 -0.165060082

  length of vectors
     4.283935723  4.283935723  4.283935723     0.285892448  0.285892448  0.285892448


 
 k-points in units of 2pi/SCALE and weight: KPOINTS created by Atomic Simulation Env
   0.00000000  0.00000000  0.00000000       0.005
  -0.02751001  0.02751001  0.02751001       0.019
  -0.05502003  0.05502003  0.05502003       0.019
  -0.08253004  0.08253004  0.08253004       0.019
   0.05502003 -0.05502003 -0.05502003       0.019
   0.02751001 -0.02751001 -0.02751001       0.019
   0.00000000  0.00000000  0.05502003       0.028
  -0.02751001  0.02751001  0.08253004       0.056
  -0.05502003  0.05502003  0.11004005       0.056
   0.08253004 -0.08253004 -0.02751001       0.056
   0.05502003 -0.05502003  0.00000000       0.056
   0.00000000  0.00000000  0.11004005       0.028
  -0.02751001  0.02751001  0.13755007       0.056
   0.11004005 -0.11004005  0.00000000       0.056
   0.08253004 -0.08253004  0.02751001       0.056
   0.00000000  0.00000000  0.16506008       0.014
   0.13755007 -0.13755007  0.02751001       0.056
   0.11004005 -0.11004005  0.05502003       0.056
  -0.02751001  0.02751001 -0.08253004       0.056
   0.00000000  0.05502003  0.11004005       0.111
   0.13755007 -0.08253004 -0.02751001       0.111
   0.16506008 -0.11004005 -0.00000000       0.056
 
 k-points in reciprocal lattice and weights: KPOINTS created by Atomic Simulation Env
   0.00000000  0.00000000  0.00000000       0.005
   0.16666667  0.00000000  0.00000000       0.019
   0.33333333  0.00000000  0.00000000       0.019
   0.50000000  0.00000000  0.00000000       0.019
  -0.33333333  0.00000000  0.00000000       0.019
  -0.16666667  0.00000000  0.00000000       0.019
   0.16666667  0.16666667  0.00000000       0.028
   0.33333333  0.16666667  0.00000000       0.056
   0.50000000  0.16666667  0.00000000       0.056
  -0.33333333  0.16666667  0.00000000       0.056
  -0.16666667  0.16666667  0.00000000       0.056
   0.33333333  0.33333333  0.00000000       0.028
   0.50000000  0.33333333  0.00000000       0.056
  -0.33333333  0.33333333  0.00000000       0.056
  -0.16666667  0.33333333  0.00000000       0.056
   0.50000000  0.50000000  0.00000000       0.014
  -0.33333333  0.50000000  0.00000000       0.056
  -0.16666667  0.50000000  0.00000000       0.056
  -0.16666667 -0.33333333  0.00000000       0.056
   0.50000000  0.33333333  0.16666667       0.111
  -0.33333333  0.33333333  0.16666667       0.111
  -0.33333333  0.50000000  0.16666667       0.056
 
 position of ions in fractional coordinates (direct lattice) 
   0.00000000  0.00000000  0.00000000
   0.25000000  0.25000000  0.25000000
 
 position of ions in cartesian coordinates  (Angst):
   0.00000000  0.00000000  0.00000000
   1.51460000  1.51460000  1.51460000
 
 Euler angles ALPHA=     0.0000000  BETA=     0.0000000

 transformation matrix from SAXIS to cartesian coordinates
 ---------------------------------------------------------
     1.0000000 m_x     0.0000000 m_y     0.0000000 m_z
     0.0000000 m_x     1.0000000 m_y     0.0000000 m_z
     0.0000000 m_x     0.0000000 m_y     1.0000000 m_z

 transformation matrix from cartesian coordinates to SAXIS
 ---------------------------------------------------------
     1.0000000 m_x     0.0000000 m_y     0.0000000 m_z
     0.0000000 m_x     1.0000000 m_y     0.0000000 m_z
     0.0000000 m_x     0.0000000 m_y     1.0000000 m_z




--------------------------------------------------------------------------------------------------------


 k-point  1 :   0.0000 0.0000 0.0000  plane waves:    1290
 k-point  2 :   0.1667 0.0000 0.0000  plane waves:    1298
 k-point  3 :   0.3333 0.0000 0.0000  plane waves:    1292
 k-point  4 :   0.5000 0.0000 0.0000  plane waves:    1304
 k-point  5 :  -0.3333 0.0000 0.0000  plane waves:    1292
 k-point  6 :  -0.1667 0.0000 0.0000  plane waves:    1298
 k-point  7 :   0.1667 0.1667 0.0000  plane waves:    1306
 k-point  8 :   0.3333 0.1667 0.0000  plane waves:    1300
 k-point  9 :   0.5000 0.1667 0.0000  plane waves:    1324
 k-point 10 :  -0.3333 0.1667 0.0000  plane waves:    1318
 k-point 11 :  -0.1667 0.1667 0.0000  plane waves:    1288
 k-point 12 :   0.3333 0.3333 0.0000  plane waves:    1288
 k-point 13 :   0.5000 0.3333 0.0000  plane waves:    1320
 k-point 14 :  -0.3333 0.3333 0.0000  plane waves:    1316
 k-point 15 :  -0.1667 0.3333 0.0000  plane waves:    1318
 k-point 16 :   0.5000 0.5000 0.0000  plane waves:    1304
 k-point 17 :  -0.3333 0.5000 0.0000  plane waves:    1320
 k-point 18 :  -0.1667 0.5000 0.0000  plane waves:    1324
 k-point 19 :  -0.1667-0.3333 0.0000  plane waves:    1300
 k-point 20 :   0.5000 0.3333 0.1667  plane waves:    1312
 k-point 21 :  -0.3333 0.3333 0.1667  plane waves:    1320
 k-point 22 :  -0.3333 0.5000 0.1667  plane waves:    1324

 maximum and minimum number of plane-waves per node :      1324     1288

 maximum number of plane-waves:      1324
 maximum index in each direction: 
   IXMAX=    6   IYMAX=    6   IZMAX=    6
   IXMIN=   -6   IYMIN=   -6   IZMIN=   -6


 serial   3D FFT for wavefunctions
 parallel 3D FFT for charge:
    minimum data exchange during FFTs selected (reduces bandwidth)


 total amount of memory used by VASP MPI-rank0    35891. kBytes
=======================================================================

   base      :      30000. kBytes
   nonl-proj :       3096. kBytes
   fftplans  :        138. kBytes
   grid      :       1057. kBytes
   one-center:         64. kBytes
   wavefun   :       1536. kBytes
 
     INWAV:  cpu time    0.0000: real time    0.0002
 Broyden mixing: mesh for mixing (old mesh)
   NGX = 13   NGY = 13   NGZ = 13
  (NGX  = 36   NGY  = 36   NGZ  = 36)
  gives a total of   2197 points

 initial charge density was supplied:
 charge density of overlapping atoms calculated
 number of electron       8.0000000 magnetization       0.0000000      0.0000000      0.0000000
 keeping initial charge density in first step


--------------------------------------------------------------------------------------------------------


 Maximum index for augmentation-charges          559 (set IRDMAX)


--------------------------------------------------------------------------------------------------------


 First call to EWALD:  gamma=   0.464
 Maximum number of real-space cells 3x 3x 3
 Maximum number of reciprocal cells 3x 3x 3

    FEWALD:  cpu time    0.0016: real time    0.0017


--------------------------------------- Iteration      1(   1)  ---------------------------------------


    POTLOK:  cpu time    0.0089: real time    0.0090
    SETDIJ:  cpu time    0.0104: real time    0.0105
    TRIAL :  cpu time    1.5183: real time    1.5199
    CORREC:  cpu time    0.0003: real time    0.0003
    --------------------------------------------
      LOOP:  cpu time    1.5395: real time    1.5435

 eigenvalue-minimisations  :  3696
 total energy-change (2. order) : 0.1076888E+01  (-0.3002249E+03)
 number of electron       8.0000000 magnetization       0.0000000      0.0000000      0.0000000
 augmentation part        8.0000000 magnetization       0.0000000      0.0000000      0.0000000

 Free energy of the ion-electron system (eV)
  ---------------------------------------------------
  alpha Z        PSCENC =         6.67624893
  Ewald energy   TEWEN  =      -213.84743004
  -Hartree energ DENC   =       -21.29595069
  -exchange      EXHF   =         0.00000000
  -V(xc)+E(xc)   XCENC  =       -67.69638858
  PAW double counting   =       241.28716127     -161.72347623
  entropy T*S    EENTRO =         0.00000671
  eigenvalues    EBANDS =        -6.29849225
  atomic energy  EATOM  =       223.97520926
  ---------------------------------------------------
  free energy    TOTEN  =         1.07688839 eV

  energy without entropy =        1.07688168  energy(sigma->0) =        1.07688615


--------------------------------------------------------------------------------------------------------




--------------------------------------- Iteration      1(   2)  ---------------------------------------


    TRIAL :  cpu time    2.7662: real time    2.7682
    CORREC:  cpu time    0.0002: real time    0.0002
    --------------------------------------------
      LOOP:  cpu time    2.7677: real time    2.7705

 eigenvalue-minimisations  :  4928
 total energy-change (2. order) :-0.1515062E+02  (-0.1515064E+02)
 number of electron       8.0000000 magnetization       0.0000000      0.0000000      0.0000000
 augmentation part        8.0000000 magnetization       0.0000000      0.0000000      0.0000000

 Free energy of the ion-electron system (eV)
  ---------------------------------------------------
  alpha Z        PSCENC =         6.67624893
  Ewald energy   TEWEN  =      -213.84743004
  -Hartree energ DENC   =       -21.29595069
  -exchange      EXHF   =         0.00000000
  -V(xc)+E(xc)   XCENC  =       -67.69638858
  PAW double counting   =       241.28716127     -161.72347623
  entropy T*S    EENTRO =         0.00002876
  eigenvalues    EBANDS =       -21.44913886
  atomic energy  EATOM  =       223.97520926
  ---------------------------------------------------
  free energy    TOTEN  =       -14.07373618 eV

  energy without entropy =      -14.07376494  energy(sigma->0) =      -14.07374576


--------------------------------------------------------------------------------------------------------




--------------------------------------- Iteration      1(   3)  ---------------------------------------


    TRIAL :  cpu time    2.7778: real time    2.7796
    CORREC:  cpu time    0.0002: real time    0.0002
    --------------------------------------------
      LOOP:  cpu time    2.7789: real time    2.7815

 eigenvalue-minimisations  :  4928
 total energy-change (2. order) :-0.1347385E+00  (-0.1347366E+00)
 number of electron       8.0000000 magnetization       0.0000000      0.0000000      0.0000000
 augmentation part        8.0000000 magnetization       0.0000000      0.0000000      0.0000000

 Free energy of the ion-electron system (eV)
  ---------------------------------------------------
  alpha Z        PSCENC =         6.67624893
  Ewald energy   TEWEN  =      -213.84743004
  -Hartree energ DENC   =       -21.29595069
  -exchange      EXHF   =         0.00000000
  -V(xc)+E(xc)   XCENC  =       -67.69638858
  PAW double counting   =       241.28716127     -161.72347623
  entropy T*S    EENTRO =         0.00002684
  eigenvalues    EBANDS =       -21.58387540
  atomic energy  EATOM  =       223.97520926
  ---------------------------------------------------
  free energy    TOTEN  =       -14.20847463 eV

  energy without entropy =      -14.20850148  energy(sigma->0) =      -14.20848358


--------------------------------------------------------------------------------------------------------




--------------------------------------- Iteration      1(   4)  ---------------------------------------


    TRIAL :  cpu time    2.7595: real time    2.7606
    CORREC:  cpu time    0.0002: real time    0.0002
    --------------------------------------------
      LOOP:  cpu time    2.7610: real time    2.7631

 eigenvalue-minimisations  :  4928
 total energy-change (2. order) :-0.9184379E-03  (-0.9184378E-03)
 number of electron       8.0000000 magnetization       0.0000000      0.0000000      0.0000000
 augmentation part        8.0000000 magnetization       0.0000000      0.0000000      0.0000000

 Free energy of the ion-electron system (eV)
  ---------------------------------------------------
  alpha Z        PSCENC =         6.67624893
  Ewald energy   TEWEN  =      -213.84743004
  -Hartree energ DENC   =       -21.29595069
  -exchange      EXHF   =         0.00000000
  -V(xc)+E(xc)   XCENC  =       -67.69638858
  PAW double counting   =       241.28716127     -161.72347623
  entropy T*S    EENTRO =         0.00002684
  eigenvalues    EBANDS =       -21.58479384
  atomic energy  EATOM  =       223.97520926
  ---------------------------------------------------
  free energy    TOTEN  =       -14.20939307 eV

  energy without entropy =      -14.20941991  energy(sigma->0) =      -14.20940202


--------------------------------------------------------------------------------------------------------




--------------------------------------- Iteration      1(   5)  ---------------------------------------


    TRIAL :  cpu time    2.7959: real time    2.7976
    CORREC:  cpu time    0.0002: real time    0.0002
    CHARGE:  cpu time    0.0203: real time    0.0204
    --------------------------------------------
      LOOP:  cpu time    2.8167: real time    2.8185

 eigenvalue-minimisations  :  4928
 total energy-change (2. order) :-0.9266594E-05  (-0.9266714E-05)
 number of electron       8.0000014 magnetization       0.0000000      0.0000000      0.0000000
 augmentation part       -1.4139087 magnetization       0.0000000      0.0000000      0.0000000

 Free energy of the ion-electron system (eV)
  ---------------------------------------------------
  alpha Z        PSCENC =         6.67624893
  Ewald energy   TEWEN  =      -213.84743004
  -Hartree energ DENC   =       -21.29595069
  -exchange      EXHF   =         0.00000000
  -V(xc)+E(xc)   XCENC  =       -67.69638858
  PAW double counting   =       241.28716127     -161.72347623
  entropy T*S    EENTRO =         0.00002684
  eigenvalues    EBANDS =       -21.58480311
  atomic energy  EATOM  =       223.97520926
  ---------------------------------------------------
  free energy    TOTEN  =       -14.20940234 eV

  energy without entropy =      -14.20942918  energy(sigma->0) =      -14.20941129


--------------------------------------------------------------------------------------------------------




--------------------------------------- Iteration      1(   6)  ---------------------------------------


    POTLOK:  cpu time    0.0075: real time    0.0087
    SETDIJ:  cpu time    0.0092: real time    0.0092
    TRIAL :  cpu time    0.2455: real time    0.2496
    CORREC:  cpu time    0.0002: real time    0.0002
    CHARGE:  cpu time    0.0186: real time    0.0186
    --------------------------------------------
      LOOP:  cpu time    0.2821: real time    0.2881

 eigenvalue-minimisations  :     0
 total energy-change (2. order) : 0.3710417E+01  (-0.1839861E+01)
 number of electron       8.0000013 magnetization      -0.0000000     -0.0000000      0.0000000
 augmentation part       -1.4211067 magnetization      -0.0000000     -0.0000000      0.0000000

 Free energy of the ion-electron system (eV)
  ---------------------------------------------------
  alpha Z        PSCENC =         6.67624893
  Ewald energy   TEWEN  =      -213.84743004
  -Hartree energ DENC   =       -39.21320602
  -exchange      EXHF   =         0.00000000
  -V(xc)+E(xc)   XCENC  =       -65.64770538
  PAW double counting   =       594.76680068     -519.45590299
  entropy T*S    EENTRO =         0.00002684
  eigenvalues    EBANDS =         2.24697330
  atomic energy  EATOM  =       223.97520926
  ---------------------------------------------------
  free energy    TOTEN  =       -10.49898543 eV

  energy without entropy =      -10.49901227  energy(sigma->0) =      -10.49899437


--------------------------------------------------------------------------------------------------------




--------------------------------------- Iteration      1(   7)  ---------------------------------------


    POTLOK:  cpu time    0.0070: real time    0.0070
    SETDIJ:  cpu time    0.0093: real time    0.0093
    TRIAL :  cpu time    0.2373: real time    0.2408
    CORREC:  cpu time    0.0002: real time    0.0002
    CHARGE:  cpu time    0.0188: real time    0.0188
    --------------------------------------------
      LOOP:  cpu time    0.2728: real time    0.2764

 eigenvalue-minimisations  :     0
 total energy-change (2. order) :-0.1422297E+01  (-0.9545526E+00)
 number of electron       8.0000012 magnetization      -0.0000000     -0.0000000     -0.0000000
 augmentation part       -1.4379197 magnetization      -0.0000000     -0.0000000     -0.0000000

 Free energy of the ion-electron system (eV)
  ---------------------------------------------------
  alpha Z        PSCENC =         6.67624893
  Ewald energy   TEWEN  =      -213.84743004
  -Hartree energ DENC   =       -34.37040009
  -exchange      EXHF   =         0.00000000
  -V(xc)+E(xc)   XCENC  =       -66.03208938
  PAW double counting   =       574.57820203     -498.18052242
  entropy T*S    EENTRO =         0.00002684
  eigenvalues    EBANDS =        -4.72052788
  atomic energy  EATOM  =       223.97520926
  ---------------------------------------------------
  free energy    TOTEN  =       -11.92128274 eV

  energy without entropy =      -11.92130958  energy(sigma->0) =      -11.92129169


--------------------------------------------------------------------------------------------------------




--------------------------------------- Iteration      1(   8)  ---------------------------------------


    POTLOK:  cpu time    0.0070: real time    0.0070
    SETDIJ:  cpu time    0.0090: real time    0.0090
    TRIAL :  cpu time    0.2375: real time    0.2409
    CORREC:  cpu time    0.0002: real time    0.0002
    CHARGE:  cpu time    0.0190: real time    0.0190
    --------------------------------------------
      LOOP:  cpu time    0.2730: real time    0.2763

 eigenvalue-minimisations  :     0
 total energy-change (2. order) :-0.6170788E+00  (-0.1850274E+00)
 number of electron       8.0000011 magnetization       0.0000000      0.0000000     -0.0000000
 augmentation part       -1.4545774 magnetization       0.0000000      0.0000000     -0.0000000

 Free energy of the ion-electron system (eV)
  ---------------------------------------------------
  alpha Z        PSCENC =         6.67624893
  Ewald energy   TEWEN  =      -213.84743004
  -Hartree energ DENC   =       -30.22538007
  -exchange      EXHF   =         0.00000000
  -V(xc)+E(xc)   XCENC  =       -66.38401237
  PAW double counting   =       554.89747631     -477.63790117
  entropy T*S    EENTRO =         0.00002684
  eigenvalues    EBANDS =        -9.99259925
  atomic energy  EATOM  =       223.97520926
  ---------------------------------------------------
  free energy    TOTEN  =       -12.53836156 eV

  energy without entropy =      -12.53838840  energy(sigma->0) =      -12.53837050


--------------------------------------------------------------------------------------------------------




--------------------------------------- Iteration      1(   9)  ---------------------------------------


    POTLOK:  cpu time    0.0070: real time    0.0070
    SETDIJ:  cpu time    0.0090: real time    0.0090
    TRIAL :  cpu time    0.2375: real time    0.2408
    CORREC:  cpu time    0.0002: real time    0.0002
    CHARGE:  cpu time    0.0190: real time    0.0190
    --------------------------------------------
      LOOP:  cpu time    0.2729: real time    0.2763

 eigenvalue-minimisations  :     0
 total energy-change (2. order) :-0.8664671E-01  (-0.2300905E-01)
 number of electron       8.0000011 magnetization       0.0000000      0.0000000     -0.0000000
 augmentation part       -1.4654177 magnetization       0.0000000      0.0000000     -0.0000000

 Free energy of the ion-electron system (eV)
  ---------------------------------------------------
  alpha Z        PSCENC =         6.67624893
  Ewald energy   TEWEN  =      -213.84743004
  -Hartree energ DENC   =       -28.07270246
  -exchange      EXHF   =         0.00000000
  -V(xc)+E(xc)   XCENC  =       -66.58576223
  PAW double counting   =       539.83493751     -462.16510910
  entropy T*S    EENTRO =         0.00002684
  eigenvalues    EBANDS =       -12.44042699
  atomic energy  EATOM  =       223.97520926
  ---------------------------------------------------
  free energy    TOTEN  =       -12.62500827 eV

  energy without entropy =      -12.62503511  energy(sigma->0) =      -12.62501722


--------------------------------------------------------------------------------------------------------




--------------------------------------- Iteration      1(  10)  ---------------------------------------


    POTLOK:  cpu time    0.0070: real time    0.0070
    SETDIJ:  cpu time    0.0089: real time    0.0089
    TRIAL :  cpu time    0.2373: real time    0.2408
    CORREC:  cpu time    0.0002: real time    0.0002
    CHARGE:  cpu time    0.0188: real time    0.0188
    --------------------------------------------
      LOOP:  cpu time    0.2725: real time    0.2761

 eigenvalue-minimisations  :     0
 total energy-change (2. order) :-0.7854354E-02  (-0.2037020E-01)
 number of electron       8.0000011 magnetization      -0.0000000      0.0000000     -0.0000000
 augmentation part       -1.4703028 magnetization      -0.0000000      0.0000000     -0.0000000

 Free energy of the ion-electron system (eV)
  ---------------------------------------------------
  alpha Z        PSCENC =         6.67624893
  Ewald energy   TEWEN  =      -213.84743004
  -Hartree energ DENC   =       -27.42222769
  -exchange      EXHF   =         0.00000000
  -V(xc)+E(xc)   XCENC  =       -66.66218234
  PAW double counting   =       530.82874761     -453.06177154
  entropy T*S    EENTRO =         0.00002684
  eigenvalues    EBANDS =       -13.11948366
  atomic energy  EATOM  =       223.97520926
  ---------------------------------------------------
  free energy    TOTEN  =       -12.63286262 eV

  energy without entropy =      -12.63288947  energy(sigma->0) =      -12.63287157


--------------------------------------------------------------------------------------------------------




--------------------------------------- Iteration      1(  11)  ---------------------------------------


    POTLOK:  cpu time    0.0070: real time    0.0070
    SETDIJ:  cpu time    0.0090: real time    0.0090
    TRIAL :  cpu time    0.2372: real time    0.2405
    CORREC:  cpu time    0.0003: real time    0.0003
    CHARGE:  cpu time    0.0188: real time    0.0188
    --------------------------------------------
      LOOP:  cpu time    0.2724: real time    0.2758

 eigenvalue-minimisations  :     0
 total energy-change (2. order) :-0.1396115E-01  (-0.1223460E-01)
 number of electron       8.0000011 magnetization       0.0000000     -0.0000000      0.0000000
 augmentation part       -1.4711647 magnetization       0.0000000     -0.0000000      0.0000000

 Free energy of the ion-electron system (eV)
  ---------------------------------------------------
  alpha Z        PSCENC =         6.67624893
  Ewald energy   TEWEN  =      -213.84743004
  -Hartree energ DENC   =       -27.52136043
  -exchange      EXHF   =         0.00000000
  -V(xc)+E(xc)   XCENC  =       -66.66864525
  PAW double counting   =       527.46224731     -449.74208149
  entropy T*S    EENTRO =         0.00002684
  eigenvalues    EBANDS =       -12.98103891
  atomic energy  EATOM  =       223.97520926
  ---------------------------------------------------
  free energy    TOTEN  =       -12.64682378 eV

  energy without entropy =      -12.64685062  energy(sigma->0) =      -12.64683272


--------------------------------------------------------------------------------------------------------




--------------------------------------- Iteration      1(  12)  ---------------------------------------


    POTLOK:  cpu time    0.0069: real time    0.0069
    SETDIJ:  cpu time    0.0090: real time    0.0090
    TRIAL :  cpu time    0.2369: real time    0.2402
    CORREC:  cpu time    0.0002: real time    0.0002
    CHARGE:  cpu time    0.0189: real time    0.0189
    --------------------------------------------
      LOOP:  cpu time    0.2723: real time    0.2755

 eigenvalue-minimisations  :     0
 total energy-change (2. order) :-0.7810491E-02  (-0.3718866E-02)
 number of electron       8.0000011 magnetization       0.0000000      0.0000000      0.0000000
 augmentation part       -1.4700588 magnetization       0.0000000      0.0000000      0.0000000

 Free energy of the ion-electron system (eV)
  ---------------------------------------------------
  alpha Z        PSCENC =         6.67624893
  Ewald energy   TEWEN  =      -213.84743004
  -Hartree energ DENC   =       -27.82189016
  -exchange      EXHF   =         0.00000000
  -V(xc)+E(xc)   XCENC  =       -66.64992052
  PAW double counting   =       527.42634195     -449.78073917
  entropy T*S    EENTRO =         0.00002684
  eigenvalues    EBANDS =       -12.63248136
  atomic energy  EATOM  =       223.97520926
  ---------------------------------------------------
  free energy    TOTEN  =       -12.65463427 eV

  energy without entropy =      -12.65466111  energy(sigma->0) =      -12.65464321


--------------------------------------------------------------------------------------------------------




--------------------------------------- Iteration      1(  13)  ---------------------------------------


    POTLOK:  cpu time    0.0069: real time    0.0069
    SETDIJ:  cpu time    0.0090: real time    0.0090
    TRIAL :  cpu time    0.2367: real time    0.2400
    CORREC:  cpu time    0.0002: real time    0.0002
    CHARGE:  cpu time    0.0187: real time    0.0190
    --------------------------------------------
      LOOP:  cpu time    0.2718: real time    0.2753

 eigenvalue-minimisations  :     0
 total energy-change (2. order) :-0.2108144E-02  (-0.1245608E-02)
 number of electron       8.0000011 magnetization       0.0000000     -0.0000000     -0.0000000
 augmentation part       -1.4684305 magnetization       0.0000000     -0.0000000     -0.0000000

 Free energy of the ion-electron system (eV)
  ---------------------------------------------------
  alpha Z        PSCENC =         6.67624893
  Ewald energy   TEWEN  =      -213.84743004
  -Hartree energ DENC   =       -28.05450428
  -exchange      EXHF   =         0.00000000
  -V(xc)+E(xc)   XCENC  =       -66.63077894
  PAW double counting   =       528.44383589     -450.84749631
  entropy T*S    EENTRO =         0.00002684
  eigenvalues    EBANDS =       -12.37185377
  atomic energy  EATOM  =       223.97520926
  ---------------------------------------------------
  free energy    TOTEN  =       -12.65674241 eV

  energy without entropy =      -12.65676925  energy(sigma->0) =      -12.65675136


--------------------------------------------------------------------------------------------------------




--------------------------------------- Iteration      1(  14)  ---------------------------------------


    POTLOK:  cpu time    0.0070: real time    0.0070
    SETDIJ:  cpu time    0.0090: real time    0.0090
    TRIAL :  cpu time    0.2368: real time    0.2401
    CORREC:  cpu time    0.0002: real time    0.0002
    CHARGE:  cpu time    0.0189: real time    0.0189
    --------------------------------------------
      LOOP:  cpu time    0.2722: real time    0.2755

 eigenvalue-minimisations  :     0
 total energy-change (2. order) :-0.8149726E-03  (-0.7289964E-03)
 number of electron       8.0000011 magnetization       0.0000000      0.0000000      0.0000000
 augmentation part       -1.4671066 magnetization       0.0000000      0.0000000      0.0000000

 Free energy of the ion-electron system (eV)
  ---------------------------------------------------
  alpha Z        PSCENC =         6.67624893
  Ewald energy   TEWEN  =      -213.84743004
  -Hartree energ DENC   =       -28.15977566
  -exchange      EXHF   =         0.00000000
  -V(xc)+E(xc)   XCENC  =       -66.61922149
  PAW double counting   =       529.42449511     -451.84468272
  entropy T*S    EENTRO =         0.00002684
  eigenvalues    EBANDS =       -12.26242761
  atomic energy  EATOM  =       223.97520926
  ---------------------------------------------------
  free energy    TOTEN  =       -12.65755738 eV

  energy without entropy =      -12.65758423  energy(sigma->0) =      -12.65756633


--------------------------------------------------------------------------------------------------------




--------------------------------------- Iteration      1(  15)  ---------------------------------------


    POTLOK:  cpu time    0.0069: real time    0.0069
    SETDIJ:  cpu time    0.0090: real time    0.0090
    TRIAL :  cpu time    0.2368: real time    0.2401
    CORREC:  cpu time    0.0002: real time    0.0002
    CHARGE:  cpu time    0.0190: real time    0.0190
    --------------------------------------------
      LOOP:  cpu time    0.2722: real time    0.2755

 eigenvalue-minimisations  :     0
 total energy-change (2. order) :-0.5067766E-03  (-0.2957529E-03)
 number of electron       8.0000011 magnetization      -0.0000000      0.0000000      0.0000000
 augmentation part       -1.4663510 magnetization      -0.0000000      0.0000000      0.0000000

 Free energy of the ion-electron system (eV)
  ---------------------------------------------------
  alpha Z        PSCENC =         6.67624893
  Ewald energy   TEWEN  =      -213.84743004
  -Hartree energ DENC   =       -28.17876293
  -exchange      EXHF   =         0.00000000
  -V(xc)+E(xc)   XCENC  =       -66.61445081
  PAW double counting   =       530.04944908     -452.46687189
  entropy T*S    EENTRO =         0.00002684
  eigenvalues    EBANDS =       -12.25148259
  atomic energy  EATOM  =       223.97520926
  ---------------------------------------------------
  free energy    TOTEN  =       -12.65806416 eV

  energy without entropy =      -12.65809100  energy(sigma->0) =      -12.65807311


--------------------------------------------------------------------------------------------------------




--------------------------------------- Iteration      1(  16)  ---------------------------------------


    POTLOK:  cpu time    0.0069: real time    0.0069
    SETDIJ:  cpu time    0.0089: real time    0.0089
    TRIAL :  cpu time    0.2368: real time    0.2402
    CORREC:  cpu time    0.0002: real time    0.0002
    CHARGE:  cpu time    0.0190: real time    0.0190
    --------------------------------------------
      LOOP:  cpu time    0.2722: real time    0.2756

 eigenvalue-minimisations  :     0
 total energy-change (2. order) :-0.1784144E-03  (-0.6093631E-04)
 number of electron       8.0000011 magnetization      -0.0000000      0.0000000     -0.0000000
 augmentation part       -1.4660793 magnetization      -0.0000000     -0.0000000     -0.0000000

 Free energy of the ion-electron system (eV)
  ---------------------------------------------------
  alpha Z        PSCENC =         6.67624893
  Ewald energy   TEWEN  =      -213.84743004
  -Hartree energ DENC   =       -28.16549555
  -exchange      EXHF   =         0.00000000
  -V(xc)+E(xc)   XCENC  =       -66.61333866
  PAW double counting   =       530.33343328     -452.74293940
  entropy T*S    EENTRO =         0.00002684
  eigenvalues    EBANDS =       -12.27395723
  atomic energy  EATOM  =       223.97520926
  ---------------------------------------------------
  free energy    TOTEN  =       -12.65824257 eV

  energy without entropy =      -12.65826942  energy(sigma->0) =      -12.65825152


--------------------------------------------------------------------------------------------------------




--------------------------------------- Iteration      1(  17)  ---------------------------------------


    POTLOK:  cpu time    0.0069: real time    0.0069
    SETDIJ:  cpu time    0.0090: real time    0.0090
    TRIAL :  cpu time    0.2368: real time    0.2403
    CORREC:  cpu time    0.0002: real time    0.0002
    EDDIAG:  cpu time    0.1521: real time    0.1552
    CHARGE:  cpu time    0.0190: real time    0.0190
    --------------------------------------------
      LOOP:  cpu time    0.4243: real time    0.4309

 eigenvalue-minimisations  :     0
 total energy-change (2. order) :-0.2602049E-04  (-0.1363577E-04)
 number of electron       8.0000011 magnetization      -0.0000000     -0.0000000     -0.0000000
 augmentation part       -1.4660850 magnetization      -0.0000000     -0.0000000     -0.0000000

 Free energy of the ion-electron system (eV)
  ---------------------------------------------------
  alpha Z        PSCENC =         6.67624893
  Ewald energy   TEWEN  =      -213.84743004
  -Hartree energ DENC   =       -28.15143968
  -exchange      EXHF   =         0.00000000
  -V(xc)+E(xc)   XCENC  =       -66.61349620
  PAW double counting   =       530.38898785     -452.79274326
  entropy T*S    EENTRO =         0.00002684
  eigenvalues    EBANDS =       -12.29363230
  atomic energy  EATOM  =       223.97520926
  ---------------------------------------------------
  free energy    TOTEN  =       -12.65826859 eV

  energy without entropy =      -12.65829544  energy(sigma->0) =      -12.65827754


--------------------------------------------------------------------------------------------------------


  average scaling for gradient   1.5226


 average (electrostatic) potential at core
  the test charge radii are     1.4837  1.0621
  (the norm of the test charge is              1.0000)
       1 -39.4652       2 -49.6443
 
 
 
 E-fermi :   2.9702     XC(G=0):  -8.7721     alpha+bet : -8.8632


 k-point     1 :       0.0000    0.0000    0.0000
  band No.  band energies     occupation 
      1      -8.1709      1.00000
      2      -8.1709      1.00000
      3       2.6549      1.00000
      4       2.6549      1.00000
      5       2.9289      1.00002
      6       2.9289      1.00000
      7       2.9289      1.00000
      8       2.9289      0.99998
      9       3.2491     -0.00000
     10       3.2491     -0.00000
     11       7.2475      0.00000
     12       7.2475      0.00000
     13       7.7455      0.00000
     14       7.7455      0.00000
     15       7.7455      0.00000
     16       7.7455      0.00000
     17      10.7426      0.00000
     18      10.7426      0.00000
     19      12.8609      0.00000
     20      12.8609      0.00000
     21      12.8609      0.00000
     22      12.8609      0.00000
     23      13.6108      0.00000
     24      13.6108      0.00000
     25      13.6415      0.00000
     26      13.6415      0.00000
     27      13.6415      0.00000
     28      13.6415      0.00000
     29      16.1845      0.00000
     30      16.1845      0.00000
     31      24.4106      0.00000
     32      24.4106      0.00000
     33      24.4106      0.00000
     34      24.4106      0.00000
     35      24.5610      0.00000
     36      24.5610      0.00000
     37      25.7742      0.00000
     38      25.7742      0.00000
     39      25.7940      0.00000
     40      25.7940      0.00000
     41      25.7940      0.00000
     42      25.7940      0.00000
     43      25.8877      0.00000
     44      25.8877      0.00000
     45      25.8877      0.00000
     46      25.8877      0.00000
     47      25.8877      0.00000
     48      25.8877      0.00000
     49      26.2335      0.00000
     50      26.2335      0.00000
     51      26.2335      0.00000
     52      26.2335      0.00000
     53      33.4055      0.00000
     54      33.4764      0.00000
     55      33.5392      0.00000
     56      33.8276      0.00000

 k-point     2 :       0.1667    0.0000    0.0000
  band No.  band energies     occupation 
      1      -7.9109      1.00000
      2      -7.9109      1.00000
      3       0.6721      1.00000
      4       0.6721      1.00000
      5       2.4940      1.00000
      6       2.4940      1.00000
      7       2.6823      1.00000
      8       2.6900      1.00000
      9       4.5194      0.00000
     10       4.5194      0.00000
     11       7.5608      0.00000
     12       7.5608      0.00000
     13       7.8811      0.00000
     14       7.8811      0.00000
     15       8.1108      0.00000
     16       8.1115      0.00000
     17      11.8035      0.00000
     18      11.8333      0.00000
     19      11.8333      0.00000
     20      11.8745      0.00000
     21      11.8753      0.00000
     22      11.8753      0.00000
     23      13.2967      0.00000
     24      13.2967      0.00000
     25      15.6473      0.00000
     26      15.6615      0.00000
     27      15.6615      0.00000
     28      15.7238      0.00000
     29      18.1214      0.00000
     30      18.1214      0.00000
     31      21.3372      0.00000
     32      21.3372      0.00000
     33      21.4761      0.00000
     34      21.5243      0.00000
     35      21.8520      0.00000
     36      21.8520      0.00000
     37      25.0131      0.00000
     38      25.1006      0.00000
     39      25.2409      0.00000
     40      25.2409      0.00000
     41      26.0529      0.00000
     42      26.0529      0.00000
     43      26.1109      0.00000
     44      26.1109      0.00000
     45      26.2286      0.00000
     46      26.2538      0.00000
     47      27.2395      0.00000
     48      27.2395      0.00000
     49      29.8121      0.00000
     50      29.8135      0.00000
     51      29.8832      0.00000
     52      29.9251      0.00000
     53      30.6324      0.00000
     54      30.6550      0.00000
     55      31.9807      0.00000
     56      32.1591      0.00000

 k-point     3 :       0.3333    0.0000    0.0000
  band No.  band energies     occupation 
      1      -7.2398      1.00000
      2      -7.2398      1.00000
      3      -1.5284      1.00000
      4      -1.5284      1.00000
      5       2.0861      1.00000
      6       2.0861      1.00000
      7       2.2886      1.00000
      8       2.2951      1.00000
      9       4.4692      0.00000
     10       4.4692      0.00000
     11       8.0969      0.00000
     12       8.0969      0.00000
     13       8.3329      0.00000
     14       8.3337      0.00000
     15       9.1612      0.00000
     16       9.1612      0.00000
     17      11.4206      0.00000
     18      11.4206      0.00000
     19      12.3001      0.00000
     20      12.3001      0.00000
     21      12.3423      0.00000
     22      12.4073      0.00000
     23      16.1124      0.00000
     24      16.1124      0.00000
     25      17.7038      0.00000
     26      17.7038      0.00000
     27      17.7850      0.00000
     28      17.8741      0.00000
     29      18.5161      0.00000
     30      18.5161      0.00000
     31      18.7750      0.00000
     32      18.7750      0.00000
     33      18.7860      0.00000
     34      18.8241      0.00000
     35      21.7894      0.00000
     36      21.7894      0.00000
     37      25.0274      0.00000
     38      25.2141      0.00000
     39      25.2415      0.00000
     40      25.2415      0.00000
     41      25.5973      0.00000
     42      25.5973      0.00000
     43      26.3956      0.00000
     44      26.4093      0.00000
     45      26.4093      0.00000
     46      26.4917      0.00000
     47      26.6576      0.00000
     48      26.6576      0.00000
     49      27.5258      0.00000
     50      27.5259      0.00000
     51      27.6274      0.00000
     52      27.6370      0.00000
     53      29.0693      0.00000
     54      29.0708      0.00000
     55      31.2489      0.00000
     56      31.4133      0.00000

 k-point     4 :       0.5000    0.0000    0.0000
  band No.  band energies     occupation 
      1      -6.7540      1.00000
      2      -6.7540      1.00000
      3      -2.5670      1.00000
      4      -2.5670      1.00000
      5       1.9147      1.00000
      6       1.9147      1.00000
      7       2.1251      1.00000
      8       2.1251      1.00000
      9       4.3142     -0.00000
     10       4.3142     -0.00000
     11       8.0524      0.00000
     12       8.0524      0.00000
     13       8.2391      0.00000
     14       8.2391      0.00000
     15       9.8664      0.00000
     16       9.8664      0.00000
     17      12.0512      0.00000
     18      12.0512      0.00000
     19      13.9740      0.00000
     20      13.9740      0.00000
     21      14.1558      0.00000
     22      14.1558      0.00000
     23      15.1667      0.00000
     24      15.1667      0.00000
     25      15.2583      0.00000
     26      15.2583      0.00000
     27      15.2612      0.00000
     28      15.2612      0.00000
     29      20.8325      0.00000
     30      20.8325      0.00000
     31      21.8697      0.00000
     32      21.8697      0.00000
     33      21.9779      0.00000
     34      21.9779      0.00000
     35      22.0081      0.00000
     36      22.0081      0.00000
     37      22.7358      0.00000
     38      22.7358      0.00000
     39      22.7561      0.00000
     40      22.7561      0.00000
     41      25.3080      0.00000
     42      25.3080      0.00000
     43      26.0550      0.00000
     44      26.0550      0.00000
     45      26.2582      0.00000
     46      26.2582      0.00000
     47      26.7784      0.00000
     48      26.7785      0.00000
     49      26.9312      0.00000
     50      26.9313      0.00000
     51      27.0145      0.00000
     52      27.0153      0.00000
     53      27.0288      0.00000
     54      27.0291      0.00000
     55      30.4515      0.00000
     56      30.5944      0.00000

 k-point     5 :      -0.3333    0.0000    0.0000
  band No.  band energies     occupation 
      1      -7.2398      1.00000
      2      -7.2398      1.00000
      3      -1.5284      1.00000
      4      -1.5284      1.00000
      5       2.0861      1.00000
      6       2.0861      1.00000
      7       2.2886      1.00000
      8       2.2951      1.00000
      9       4.4692      0.00000
     10       4.4692      0.00000
     11       8.0969      0.00000
     12       8.0969      0.00000
     13       8.3329      0.00000
     14       8.3337      0.00000
     15       9.1612      0.00000
     16       9.1612      0.00000
     17      11.4206      0.00000
     18      11.4206      0.00000
     19      12.3001      0.00000
     20      12.3001      0.00000
     21      12.3423      0.00000
     22      12.4073      0.00000
     23      16.1124      0.00000
     24      16.1124      0.00000
     25      17.7038      0.00000
     26      17.7038      0.00000
     27      17.7850      0.00000
     28      17.8741      0.00000
     29      18.5161      0.00000
     30      18.5161      0.00000
     31      18.7750      0.00000
     32      18.7750      0.00000
     33      18.7860      0.00000
     34      18.8241      0.00000
     35      21.7894      0.00000
     36      21.7894      0.00000
     37      25.0274      0.00000
     38      25.2141      0.00000
     39      25.2415      0.00000
     40      25.2415      0.00000
     41      25.5973      0.00000
     42      25.5973      0.00000
     43      26.3956      0.00000
     44      26.4093      0.00000
     45      26.4093      0.00000
     46      26.4917      0.00000
     47      26.6576      0.00000
     48      26.6576      0.00000
     49      27.5258      0.00000
     50      27.5258      0.00000
     51      27.6274      0.00000
     52      27.6370      0.00000
     53      29.0693      0.00000
     54      29.0724      0.00000
     55      31.2259      0.00000
     56      31.3367      0.00000

 k-point     6 :      -0.1667    0.0000    0.0000
  band No.  band energies     occupation 
      1      -7.9109      1.00000
      2      -7.9109      1.00000
      3       0.6721      1.00000
      4       0.6721      1.00000
      5       2.4940      1.00000
      6       2.4940      1.00000
      7       2.6823      1.00000
      8       2.6900      1.00000
      9       4.5194      0.00000
     10       4.5194      0.00000
     11       7.5608      0.00000
     12       7.5608      0.00000
     13       7.8811      0.00000
     14       7.8811      0.00000
     15       8.1108      0.00000
     16       8.1115      0.00000
     17      11.8035      0.00000
     18      11.8333      0.00000
     19      11.8333      0.00000
     20      11.8745      0.00000
     21      11.8753      0.00000
     22      11.8753      0.00000
     23      13.2967      0.00000
     24      13.2967      0.00000
     25      15.6473      0.00000
     26      15.6615      0.00000
     27      15.6615      0.00000
     28      15.7238      0.00000
     29      18.1214      0.00000
     30      18.1214      0.00000
     31      21.3372      0.00000
     32      21.3372      0.00000
     33      21.4761      0.00000
     34      21.5243      0.00000
     35      21.8520      0.00000
     36      21.8520      0.00000
     37      25.0131      0.00000
     38      25.1006      0.00000
     39      25.2409      0.00000
     40      25.2409      0.00000
     41      26.0529      0.00000
     42      26.0529      0.00000
     43      26.1109      0.00000
     44      26.1109      0.00000
     45      26.2286      0.00000
     46      26.2538      0.00000
     47      27.2395      0.00000
     48      27.2395      0.00000
     49      29.8129      0.00000
     50      29.8184      0.00000
     51      29.8820      0.00000
     52      29.9268      0.00000
     53      30.6319      0.00000
     54      30.6424      0.00000
     55      32.0250      0.00000
     56      32.1184      0.00000

 k-point     7 :       0.1667    0.1667    0.0000
  band No.  band energies     occupation 
      1      -7.8223      1.00000
      2      -7.8223      1.00000
      3       0.6212      1.00000
      4       0.6212      1.00000
      5       2.1067      1.00000
      6       2.1067      1.00000
      7       2.2109      1.00000
      8       2.2109      1.00000
      9       5.2598      0.00000
     10       5.2598      0.00000
     11       6.4613      0.00000
     12       6.4613      0.00000
     13       8.5281      0.00000
     14       8.5281      0.00000
     15       8.7716      0.00000
     16       8.7716      0.00000
     17      10.3645      0.00000
     18      10.3645      0.00000
     19      12.7799      0.00000
     20      12.7799      0.00000
     21      13.1666      0.00000
     22      13.1666      0.00000
     23      14.4558      0.00000
     24      14.4558      0.00000
     25      14.4958      0.00000
     26      14.4958      0.00000
     27      15.1680      0.00000
     28      15.1680      0.00000
     29      19.2198      0.00000
     30      19.2198      0.00000
     31      21.0765      0.00000
     32      21.0765      0.00000
     33      21.2733      0.00000
     34      21.2733      0.00000
     35      21.8847      0.00000
     36      21.8847      0.00000
     37      22.5983      0.00000
     38      22.5983      0.00000
     39      25.1822      0.00000
     40      25.1822      0.00000
     41      25.7882      0.00000
     42      25.7882      0.00000
     43      25.9677      0.00000
     44      25.9678      0.00000
     45      27.1401      0.00000
     46      27.1402      0.00000
     47      29.4021      0.00000
     48      29.4168      0.00000
     49      29.4943      0.00000
     50      29.5170      0.00000
     51      30.2486      0.00000
     52      30.2846      0.00000
     53      30.3189      0.00000
     54      30.3732      0.00000
     55      31.1941      0.00000
     56      31.8775      0.00000

 k-point     8 :       0.3333    0.1667    0.0000
  band No.  band energies     occupation 
      1      -7.2757      1.00000
      2      -7.2716      1.00000
      3      -1.0342      1.00000
      4      -1.0334      1.00000
      5       1.4945      1.00000
      6       1.5276      1.00000
      7       1.7445      1.00000
      8       1.7465      1.00000
      9       5.5524      0.00000
     10       5.5792      0.00000
     11       6.8082      0.00000
     12       6.8587      0.00000
     13       8.7263      0.00000
     14       8.7585      0.00000
     15       9.2491      0.00000
     16       9.2578      0.00000
     17      11.1121      0.00000
     18      11.1247      0.00000
     19      13.2980      0.00000
     20      13.3308      0.00000
     21      13.3567      0.00000
     22      13.3922      0.00000
     23      15.5891      0.00000
     24      15.6142      0.00000
     25      16.7316      0.00000
     26      16.7742      0.00000
     27      17.7363      0.00000
     28      17.7385      0.00000
     29      17.9803      0.00000
     30      18.0081      0.00000
     31      18.1157      0.00000
     32      18.1291      0.00000
     33      21.4132      0.00000
     34      21.5418      0.00000
     35      21.9942      0.00000
     36      22.0413      0.00000
     37      22.3668      0.00000
     38      22.3708      0.00000
     39      23.1242      0.00000
     40      23.1478      0.00000
     41      25.5987      0.00000
     42      25.6452      0.00000
     43      25.9621      0.00000
     44      25.9731      0.00000
     45      26.6748      0.00000
     46      26.6779      0.00000
     47      28.1223      0.00000
     48      28.1923      0.00000
     49      28.5884      0.00000
     50      28.6007      0.00000
     51      29.4651      0.00000
     52      29.4772      0.00000
     53      29.8566      0.00000
     54      30.0416      0.00000
     55      30.2056      0.00000
     56      30.5039      0.00000

 k-point     9 :       0.5000    0.1667    0.0000
  band No.  band energies     occupation 
      1      -6.6459      1.00000
      2      -6.6333      1.00000
      3      -2.3898      1.00000
      4      -2.3720      1.00000
      5       0.8897      1.00000
      6       0.9159      1.00000
      7       1.6615      1.00000
      8       1.6656      1.00000
      9       5.4394      0.00000
     10       5.4524      0.00000
     11       7.5085      0.00000
     12       7.5475      0.00000
     13       8.9846      0.00000
     14       8.9955      0.00000
     15       9.5956      0.00000
     16       9.6808      0.00000
     17      12.0402      0.00000
     18      12.1576      0.00000
     19      13.5639      0.00000
     20      13.6012      0.00000
     21      14.1469      0.00000
     22      14.1784      0.00000
     23      15.1108      0.00000
     24      15.1843      0.00000
     25      15.5425      0.00000
     26      15.5706      0.00000
     27      18.3478      0.00000
     28      18.4807      0.00000
     29      19.8068      0.00000
     30      19.8610      0.00000
     31      20.0316      0.00000
     32      20.0744      0.00000
     33      21.0465      0.00000
     34      21.0477      0.00000
     35      22.0139      0.00000
     36      22.0372      0.00000
     37      22.4993      0.00000
     38      22.5597      0.00000
     39      23.4186      0.00000
     40      23.4233      0.00000
     41      24.1731      0.00000
     42      24.3069      0.00000
     43      25.2071      0.00000
     44      25.2414      0.00000
     45      25.8541      0.00000
     46      25.8587      0.00000
     47      26.3632      0.00000
     48      26.4290      0.00000
     49      26.9266      0.00000
     50      27.0451      0.00000
     51      28.1081      0.00000
     52      28.1894      0.00000
     53      28.5006      0.00000
     54      28.5993      0.00000
     55      29.2709      0.00000
     56      29.8787      0.00000

 k-point    10 :      -0.3333    0.1667    0.0000
  band No.  band energies     occupation 
      1      -6.8231      1.00000
      2      -6.8118      1.00000
      3      -2.0512      1.00000
      4      -2.0339      1.00000
      5       0.7463      1.00000
      6       0.7662      1.00000
      7       1.9863      1.00000
      8       1.9938      1.00000
      9       5.5124      0.00000
     10       5.5384      0.00000
     11       7.7974      0.00000
     12       7.8239      0.00000
     13       8.6613      0.00000
     14       8.6708      0.00000
     15       9.3106      0.00000
     16       9.3767      0.00000
     17      11.8716      0.00000
     18      11.8977      0.00000
     19      12.6441      0.00000
     20      12.7608      0.00000
     21      13.8745      0.00000
     22      13.9607      0.00000
     23      15.1588      0.00000
     24      15.2709      0.00000
     25      17.1068      0.00000
     26      17.1331      0.00000
     27      18.2011      0.00000
     28      18.2383      0.00000
     29      18.3890      0.00000
     30      18.4343      0.00000
     31      19.7543      0.00000
     32      19.7742      0.00000
     33      21.3029      0.00000
     34      21.3570      0.00000
     35      22.5242      0.00000
     36      22.5532      0.00000
     37      22.7537      0.00000
     38      22.9274      0.00000
     39      23.8269      0.00000
     40      23.9485      0.00000
     41      24.2096      0.00000
     42      24.2472      0.00000
     43      24.4879      0.00000
     44      24.5171      0.00000
     45      26.1849      0.00000
[...]
  0.000   0.000   0.000   0.000   4.263  -0.000  -0.000  -0.000  -0.000   0.098   7.244  -0.000  -0.000  -0.000  -0.000   0.172
  0.000   0.000   0.000   0.000  -0.000   0.000   4.263  -0.000  -0.000   0.000  -0.000   0.000   7.244  -0.000  -0.000   0.000
  0.000   0.000   0.000   0.000  -0.000  -0.098  -0.000  -0.000   4.263  -0.000  -0.000  -0.172  -0.000  -0.000   7.244  -0.000
  0.000   0.000   0.000   0.000   7.244  -0.000  -0.000  -0.000  -0.000   0.172  12.405  -0.000  -0.000  -0.000  -0.000   0.301
  0.000   0.000   0.000   0.000  -0.000   0.000   7.244  -0.000  -0.000   0.000  -0.000   0.000  12.405  -0.000  -0.000   0.000
  0.000   0.000   0.000   0.000  -0.000  -0.172  -0.000  -0.000   7.244  -0.000  -0.000  -0.301  -0.000  -0.000  12.405  -0.000
 -0.000   0.000  -0.000   0.000   0.000   0.000   0.004   0.000   0.000   0.000   0.000   0.000   0.005   0.000   0.000   0.000
 -0.000   0.000  -0.000   0.000  -0.000   0.000   0.000   0.000   0.004   0.000  -0.000   0.000   0.000   0.000   0.005   0.000
  0.000   0.000   0.000   0.000  -0.000   0.000   0.000   0.000  -0.000   0.000  -0.000   0.000   0.000   0.000  -0.000   0.000
 -0.000   0.000  -0.000   0.000   0.004   0.000   0.000   0.000   0.000   0.000   0.005   0.000   0.000   0.000   0.000   0.000
 -0.000   0.000  -0.000   0.000  -0.000   0.000   0.000   0.000   0.000   0.000  -0.000   0.000   0.000   0.000   0.000   0.000
 pseudopotential strength for first ion, spin component:           2
  0.000  -0.000   0.000  -0.000   0.000  -0.000  -0.000   0.000  -0.000  -0.000   0.000  -0.000  -0.000   0.000  -0.000  -0.000
  0.000  -0.000   0.000  -0.000   0.000  -0.000  -0.000   0.000  -0.000  -0.000   0.000  -0.000  -0.000   0.000  -0.000  -0.000
  0.000  -0.000   0.000  -0.000   0.000  -0.000   0.000  -0.098   0.000  -0.000   0.000  -0.000   0.000  -0.172   0.000  -0.000
 -0.000   0.000  -0.000   0.000   0.000   0.098   0.000   0.000  -0.098  -0.000   0.000   0.172   0.000   0.000  -0.172  -0.000
 -0.000  -0.000  -0.000  -0.000   0.000  -0.000   0.098  -0.000   0.000  -0.000   0.000  -0.000   0.172  -0.000   0.000  -0.000
  0.000  -0.000   0.000  -0.000   0.000  -0.000   0.000  -0.172   0.000  -0.000   0.000  -0.000   0.000  -0.301   0.000  -0.000
 -0.000   0.000  -0.000   0.000   0.000   0.172   0.000   0.000  -0.172  -0.000   0.000   0.301   0.000   0.000  -0.301  -0.000
 -0.000  -0.000  -0.000  -0.000   0.000  -0.000   0.172  -0.000   0.000  -0.000   0.000  -0.000   0.301  -0.000   0.000  -0.000
  0.000  -0.000   0.000  -0.000   0.000  -0.000   0.000  -0.000  -0.000   0.000   0.000  -0.000   0.000  -0.000  -0.000   0.000
  0.000  -0.000   0.000  -0.000  -0.000   0.000   0.000  -0.000   0.000  -0.000  -0.000   0.000   0.000  -0.000   0.000  -0.000
  0.000   0.000   0.000   0.000   0.000  -0.000  -0.000  -0.000  -0.000   0.000  -0.000  -0.000  -0.000  -0.000  -0.000   0.000
  0.000  -0.000   0.000  -0.000   0.000  -0.000  -0.000  -0.000   0.000  -0.000   0.000  -0.000  -0.000  -0.000   0.000  -0.000
  0.000  -0.000   0.000  -0.000  -0.000   0.000   0.000  -0.000  -0.000  -0.000  -0.000   0.000   0.000  -0.000  -0.000  -0.000
 pseudopotential strength for first ion, spin component:           3
  0.000   0.000   0.000   0.000   0.000   0.000  -0.000  -0.000  -0.000   0.000   0.000   0.000  -0.000  -0.000  -0.000   0.000
  0.000   0.000   0.000   0.000   0.000   0.000  -0.000  -0.000  -0.000   0.000   0.000   0.000  -0.000  -0.000  -0.000   0.000
  0.000   0.000   0.000   0.000   0.000   0.000   0.000  -0.098   0.000   0.000   0.000   0.000   0.000  -0.172   0.000   0.000
 -0.000  -0.000  -0.000  -0.000   0.000   0.098   0.000  -0.000   0.098   0.000   0.000   0.172   0.000  -0.000   0.172   0.000
 -0.000   0.000  -0.000   0.000   0.000   0.000  -0.098   0.000   0.000   0.000   0.000   0.000  -0.172   0.000   0.000   0.000
  0.000   0.000   0.000   0.000   0.000   0.000   0.000  -0.172   0.000   0.000   0.000   0.000   0.000  -0.301   0.000   0.000
 -0.000  -0.000  -0.000  -0.000   0.000   0.172   0.000  -0.000   0.172   0.000   0.000   0.301   0.000  -0.000   0.301   0.000
 -0.000   0.000  -0.000   0.000   0.000   0.000  -0.172   0.000   0.000   0.000   0.000   0.000  -0.301   0.000   0.000   0.000
  0.000   0.000   0.000   0.000   0.000   0.000   0.000   0.000  -0.000  -0.000   0.000   0.000   0.000   0.000  -0.000  -0.000
  0.000   0.000   0.000   0.000  -0.000  -0.000   0.000   0.000   0.000   0.000  -0.000  -0.000   0.000   0.000   0.000   0.000
  0.000  -0.000   0.000  -0.000   0.000   0.000  -0.000   0.000  -0.000  -0.000  -0.000   0.000  -0.000   0.000  -0.000  -0.000
  0.000   0.000   0.000   0.000   0.000   0.000  -0.000   0.000   0.000   0.000   0.000   0.000  -0.000   0.000   0.000   0.000
  0.000   0.000   0.000   0.000  -0.000  -0.000   0.000   0.000  -0.000   0.000  -0.000  -0.000   0.000   0.000  -0.000   0.000
 pseudopotential strength for first ion, spin component:           4
 21.578   0.000  25.815   0.000   0.000   0.000   0.000   0.000   0.000   0.000   0.000   0.000   0.000   0.000   0.000   0.000
 25.815   0.000  30.899   0.000   0.000   0.000   0.000   0.000   0.000   0.000   0.000   0.000   0.000   0.000   0.000   0.000
  0.000   0.000   0.000   0.000   4.263  -0.000  -0.000  -0.000  -0.000  -0.098   7.244  -0.000  -0.000  -0.000  -0.000  -0.172
  0.000   0.000   0.000   0.000  -0.000   0.000   4.263  -0.000  -0.000   0.000  -0.000   0.000   7.244  -0.000  -0.000   0.000
  0.000   0.000   0.000   0.000  -0.000   0.098  -0.000  -0.000   4.263  -0.000  -0.000   0.172  -0.000  -0.000   7.244  -0.000
  0.000   0.000   0.000   0.000   7.244  -0.000  -0.000  -0.000  -0.000  -0.172  12.405  -0.000  -0.000  -0.000  -0.000  -0.301
  0.000   0.000   0.000   0.000  -0.000   0.000   7.244  -0.000  -0.000   0.000  -0.000   0.000  12.405  -0.000  -0.000   0.000
  0.000   0.000   0.000   0.000  -0.000   0.172  -0.000  -0.000   7.244  -0.000  -0.000   0.301  -0.000  -0.000  12.405  -0.000
 -0.000   0.000  -0.000   0.000   0.000   0.000   0.004   0.000   0.000   0.000   0.000   0.000   0.005   0.000   0.000   0.000
 -0.000   0.000  -0.000   0.000   0.000   0.000   0.000   0.000   0.004   0.000   0.000   0.000   0.000   0.000   0.005   0.000
 -0.000   0.000  -0.000   0.000  -0.000   0.000   0.000   0.000  -0.000   0.000  -0.000   0.000   0.000   0.000  -0.000   0.000
 -0.000   0.000  -0.000   0.000   0.004   0.000   0.000   0.000  -0.000   0.000   0.005   0.000   0.000   0.000  -0.000   0.000
  0.000   0.000   0.000   0.000  -0.000   0.000  -0.000   0.000   0.000   0.000  -0.000   0.000  -0.000   0.000   0.000   0.000
 total augmentation occupancy for first ion, spin component:           1
  6.514  -3.267   0.000   0.000   0.000  -0.000   0.000   0.000   0.000  -0.000  -0.000  -0.000   0.000
 -3.267   1.856   0.000  -0.000  -0.000  -0.000  -0.000   0.000  -0.000   0.000   0.000  -0.000   0.000
  0.000   0.000   2.067   0.000  -0.000  -0.481   0.000  -0.000  -0.000   0.000   0.000   0.364  -0.000
  0.000   0.000   0.000   2.067  -0.000  -0.000  -0.481   0.000   0.364  -0.000  -0.000   0.000   0.000
  0.000   0.000  -0.000   0.000   2.067  -0.000  -0.000  -0.481   0.000   0.364   0.000   0.000   0.000
  0.000   0.000  -0.481   0.000   0.000   0.128   0.000  -0.000   0.000   0.000   0.000  -0.081   0.000
  0.000  -0.000  -0.000  -0.481   0.000   0.000   0.128  -0.000  -0.081  -0.000  -0.000   0.000  -0.000
  0.000   0.000  -0.000  -0.000  -0.481  -0.000  -0.000   0.128  -0.000  -0.081   0.000  -0.000   0.000
  0.000   0.000   0.000   0.364  -0.000  -0.000  -0.081  -0.000   0.111   0.000   0.000  -0.000   0.000
 -0.000   0.000   0.000  -0.000   0.364  -0.000   0.000  -0.081   0.000   0.111   0.000   0.000   0.000
 -0.000   0.000   0.000   0.000  -0.000   0.000  -0.000  -0.000  -0.000   0.000   0.031  -0.000   0.000
  0.000  -0.000   0.364   0.000   0.000  -0.081  -0.000   0.000  -0.000   0.000   0.000   0.111  -0.000
  0.000   0.000  -0.000   0.000   0.000   0.000   0.000  -0.000   0.000  -0.000  -0.000   0.000   0.031
 total augmentation occupancy for first ion, spin component:           2
  0.000   0.000  -0.000   0.000   0.000  -0.000  -0.000   0.000   0.000   0.000   0.000   0.000   0.000
  0.000   0.000  -0.000   0.000   0.000  -0.000   0.000   0.000   0.000   0.000   0.000   0.000   0.000
  0.000   0.000  -0.000   0.000  -0.000  -0.000  -0.000   0.000  -0.000  -0.000   0.000  -0.000   0.000
 -0.000   0.000  -0.000   0.000  -0.000   0.000   0.000   0.000  -0.000  -0.000   0.000   0.000   0.000
  0.000   0.000  -0.000  -0.000   0.000   0.000   0.000   0.000   0.000   0.000  -0.000   0.000  -0.000
  0.000   0.000   0.000   0.000  -0.000   0.000  -0.000   0.000   0.000  -0.000   0.000   0.000   0.000
  0.000   0.000  -0.000   0.000  -0.000   0.000   0.000   0.000   0.000   0.000  -0.000  -0.000   0.000
  0.000   0.000   0.000   0.000   0.000  -0.000  -0.000   0.000   0.000   0.000   0.000   0.000   0.000
  0.000   0.000  -0.000  -0.000   0.000   0.000   0.000   0.000   0.000  -0.000   0.000  -0.000  -0.000
  0.000   0.000   0.000  -0.000  -0.000  -0.000  -0.000   0.000  -0.000  -0.000  -0.000   0.000  -0.000
  0.000   0.000   0.000   0.000  -0.000   0.000   0.000   0.000  -0.000  -0.000   0.000   0.000   0.000
  0.000   0.000   0.000   0.000  -0.000   0.000  -0.000   0.000   0.000   0.000   0.000   0.000   0.000
 -0.000  -0.000   0.000   0.000  -0.000  -0.000   0.000   0.000  -0.000  -0.000  -0.000   0.000   0.000
 total augmentation occupancy for first ion, spin component:           3
  0.000   0.000   0.000  -0.000  -0.000   0.000  -0.000  -0.000  -0.000   0.000   0.000   0.000   0.000
  0.000   0.000   0.000   0.000   0.000   0.000   0.000   0.000  -0.000   0.000   0.000   0.000   0.000
  0.000   0.000   0.000   0.000   0.000   0.000  -0.000   0.000  -0.000  -0.000   0.000   0.000  -0.000
 -0.000   0.000   0.000  -0.000   0.000   0.000  -0.000  -0.000   0.000  -0.000  -0.000  -0.000   0.000
 -0.000   0.000   0.000  -0.000   0.000   0.000   0.000   0.000   0.000   0.000   0.000  -0.000  -0.000
  0.000   0.000   0.000   0.000   0.000   0.000  -0.000  -0.000   0.000   0.000  -0.000   0.000   0.000
 -0.000   0.000   0.000   0.000   0.000   0.000   0.000  -0.000   0.000   0.000  -0.000   0.000   0.000
  0.000  -0.000   0.000  -0.000   0.000   0.000   0.000   0.000  -0.000   0.000   0.000  -0.000  -0.000
  0.000  -0.000   0.000   0.000   0.000   0.000   0.000  -0.000  -0.000   0.000   0.000   0.000  -0.000
  0.000   0.000   0.000  -0.000  -0.000   0.000   0.000  -0.000  -0.000   0.000  -0.000   0.000  -0.000
 -0.000   0.000   0.000   0.000   0.000  -0.000  -0.000   0.000   0.000   0.000  -0.000   0.000  -0.000
  0.000   0.000   0.000  -0.000   0.000   0.000  -0.000   0.000   0.000   0.000   0.000   0.000  -0.000
 -0.000  -0.000  -0.000  -0.000   0.000   0.000  -0.000   0.000   0.000  -0.000  -0.000  -0.000   0.000
 total augmentation occupancy for first ion, spin component:           4
  0.000  -0.000  -0.000   0.000   0.000   0.000   0.000   0.000   0.000  -0.000   0.000  -0.000   0.000
  0.000   0.000   0.000   0.000  -0.000   0.000   0.000  -0.000   0.000   0.000   0.000   0.000   0.000
  0.000  -0.000   0.000   0.000  -0.000  -0.000   0.000   0.000  -0.000   0.000   0.000   0.000   0.000
  0.000   0.000   0.000   0.000   0.000   0.000   0.000   0.000  -0.000  -0.000   0.000  -0.000   0.000
  0.000   0.000   0.000  -0.000  -0.000  -0.000   0.000  -0.000   0.000   0.000   0.000  -0.000  -0.000
 -0.000   0.000  -0.000   0.000  -0.000  -0.000   0.000   0.000  -0.000  -0.000  -0.000  -0.000   0.000
  0.000   0.000   0.000   0.000   0.000  -0.000   0.000  -0.000   0.000   0.000   0.000  -0.000  -0.000
  0.000  -0.000   0.000   0.000   0.000  -0.000   0.000  -0.000  -0.000   0.000  -0.000   0.000  -0.000
  0.000   0.000   0.000   0.000   0.000  -0.000   0.000   0.000  -0.000   0.000   0.000   0.000   0.000
  0.000   0.000   0.000  -0.000   0.000  -0.000  -0.000  -0.000  -0.000   0.000  -0.000   0.000  -0.000
  0.000  -0.000  -0.000   0.000   0.000   0.000   0.000  -0.000   0.000  -0.000   0.000  -0.000  -0.000
  0.000  -0.000   0.000   0.000  -0.000   0.000  -0.000   0.000   0.000  -0.000   0.000  -0.000   0.000
  0.000  -0.000  -0.000   0.000  -0.000  -0.000  -0.000  -0.000   0.000  -0.000  -0.000   0.000   0.000


------------------------ aborting loop because EDIFF is reached ----------------------------------------


    FORLOC:  cpu time    0.0010: real time    0.0010
    FORNL :  cpu time    0.0164: real time    0.0166
    STRESS:  cpu time    0.1342: real time    0.1344
    FORCOR:  cpu time    0.0064: real time    0.0065
    OFIELD:  cpu time    0.0001: real time    0.0002

  FORCE on cell =-STRESS in cart. coord.  units (eV):
  Direction    XX          YY          ZZ          XY          YZ          ZX
  --------------------------------------------------------------------------------------
  Alpha Z     6.67625     6.67625     6.67625
  Ewald     -71.28251   -71.28251   -71.28251     0.00000     0.00000     0.00000
  Hartree     9.38182     9.38182     9.38182    -0.00000    -0.00000    -0.00000
  E(xc)     -31.77891   -31.77891   -31.77891    -0.00000    -0.00000    -0.00000
  Local     -35.37182   -35.37182   -35.37182     0.00003     0.00003     0.00003
  n-local    68.99337    69.59556    65.79374     1.65654    -0.58702     0.26625
  augment    -8.21640    -8.21640    -8.21640    -0.00007    -0.00007    -0.00007
  Kinetic    65.60035    65.21812    60.49700     3.70688    -0.99387     0.60226
  Fock        0.00000     0.00000     0.00000     0.00000     0.00000     0.00000
  -------------------------------------------------------------------------------------
  Total       1.30782     1.30782     1.30782     0.00000     0.00000     0.00000
  in kB      37.69149    37.69149    37.69149     0.00000     0.00000     0.00000
  external pressure =       37.69 kB  Pullay stress =        0.00 kB


 VOLUME and BASIS-vectors are now :
 -----------------------------------------------------------------------------
  energy-cutoff  :      300.00
  volume of cell :       55.59
      direct lattice vectors                 reciprocal lattice vectors
     0.000000000  3.029200000  3.029200000    -0.165060082  0.165060082  0.165060082
     3.029200000  0.000000000  3.029200000     0.165060082 -0.165060082  0.165060082
     3.029200000  3.029200000  0.000000000     0.165060082  0.165060082 -0.165060082

  length of vectors
     4.283935723  4.283935723  4.283935723     0.285892448  0.285892448  0.285892448


 FORCES acting on ions:
    Electron-Ion                     Ewald-Force                    Non-Local-Force
 -----------------------------------------------------------------------------------------------
   0.143E-05 0.143E-05 0.143E-05   0.444E-14 0.367E-14 0.481E-14   -.278E-16 -.139E-16 -.139E-16
   0.758E-06 0.758E-06 0.758E-06   -.445E-14 -.376E-14 -.512E-14   0.118E-15 0.118E-15 0.108E-15
 -----------------------------------------------------------------------------------------------
   0.189E-05 0.189E-05 0.189E-05   -.623E-17 -.883E-16 -.308E-15   0.902E-16 0.104E-15 0.937E-16
 
 
 POSITION                                       TOTAL-FORCE (eV/Angst)
 -----------------------------------------------------------------------------------
      0.00000      0.00000      0.00000        -0.000000     -0.000000     -0.000000
      1.51460      1.51460      1.51460         0.000000      0.000000      0.000000
 -----------------------------------------------------------------------------------
    total drift:                                0.000002      0.000002      0.000002


--------------------------------------------------------------------------------------------------------



  FREE ENERGIE OF THE ION-ELECTRON SYSTEM (eV)
  ---------------------------------------------------
  free  energy   TOTEN  =       -12.65826859 eV

  energy  without entropy=      -12.65829544  energy(sigma->0) =      -12.65827754
 


--------------------------------------------------------------------------------------------------------


    POTLOK:  cpu time    0.0161: real time    0.0161


--------------------------------------------------------------------------------------------------------


 writing wavefunctions
     LOOP+:  cpu time   16.6833: real time   17.1266
    4ORBIT:  cpu time    0.0000: real time    0.0000

 Spin-Orbit-Coupling matrix elements

 Ion:    1  E_soc:     -0.0312587
 l=   1
     0.0000000    -0.0050023    -0.0050023
    -0.0050023     0.0000000    -0.0050023
    -0.0050023    -0.0050023     0.0000000
 l=   2
     0.0000000    -0.0000800     0.0000000    -0.0000800    -0.0001275
    -0.0000800     0.0000000    -0.0000957    -0.0000800    -0.0000319
     0.0000000    -0.0000957     0.0000000    -0.0000957     0.0000000
    -0.0000800    -0.0000800    -0.0000957     0.0000000    -0.0000319
    -0.0001275    -0.0000319     0.0000000    -0.0000319     0.0000000
 l=   3
     0.0000000     0.0000000     0.0000000     0.0000000     0.0000000     0.0000000     0.0000000
     0.0000000     0.0000000     0.0000000     0.0000000     0.0000000     0.0000000     0.0000000
     0.0000000     0.0000000     0.0000000     0.0000000     0.0000000     0.0000000     0.0000000
     0.0000000     0.0000000     0.0000000     0.0000000     0.0000000     0.0000000     0.0000000
     0.0000000     0.0000000     0.0000000     0.0000000     0.0000000     0.0000000     0.0000000
     0.0000000     0.0000000     0.0000000     0.0000000     0.0000000     0.0000000     0.0000000
     0.0000000     0.0000000     0.0000000     0.0000000     0.0000000     0.0000000     0.0000000

 Ion:    2  E_soc:     -0.0239812
 l=   1
     0.0000000    -0.0039985    -0.0039985
    -0.0039985     0.0000000    -0.0039985
    -0.0039985    -0.0039985     0.0000000
 l=   2
     0.0000000     0.0000006     0.0000000     0.0000006     0.0000010
     0.0000006     0.0000000     0.0000007     0.0000006     0.0000002
     0.0000000     0.0000007     0.0000000     0.0000007     0.0000000
     0.0000006     0.0000006     0.0000007     0.0000000     0.0000002
     0.0000010     0.0000002     0.0000000     0.0000002     0.0000000
 l=   3
     0.0000000     0.0000000     0.0000000     0.0000000     0.0000000     0.0000000     0.0000000
     0.0000000     0.0000000     0.0000000     0.0000000     0.0000000     0.0000000     0.0000000
     0.0000000     0.0000000     0.0000000     0.0000000     0.0000000     0.0000000     0.0000000
     0.0000000     0.0000000     0.0000000     0.0000000     0.0000000     0.0000000     0.0000000
     0.0000000     0.0000000     0.0000000     0.0000000     0.0000000     0.0000000     0.0000000
     0.0000000     0.0000000     0.0000000     0.0000000     0.0000000     0.0000000     0.0000000
     0.0000000     0.0000000     0.0000000     0.0000000     0.0000000     0.0000000     0.0000000

 total amount of memory used by VASP MPI-rank0    35891. kBytes
=======================================================================

   base      :      30000. kBytes
   nonl-proj :       3096. kBytes
   fftplans  :        138. kBytes
   grid      :       1057. kBytes
   one-center:         64. kBytes
   wavefun   :       1536. kBytes
 
  
  
 General timing and accounting informations for this job:
 ========================================================
  
                  Total CPU time used (sec):       18.625
                            User time (sec):       18.061
                          System time (sec):        0.564
                         Elapsed time (sec):       19.242
  
                   Maximum memory used (kb):       59948.
                   Average memory used (kb):           0.
  
                          Minor page faults:        34114
                          Major page faults:            0
                 Voluntary context switches:         1485
