 vasp.5.4.4.18Apr17-6-g9f103f2a35 (build Nov 08 2017 12:56:59) complex          
  
 executed on             LinuxIFC date 2021.05.28  00:22:50
 running on   56 total cores
 distrk:  each k-point on   56 cores,    1 groups
 distr:  one band on NCORES_PER_BAND=   1 cores,   56 groups


--------------------------------------------------------------------------------------------------------


 INCAR:
 POTCAR:    PAW_PBE In 08Apr2002                  
 POTCAR:    PAW_PBE As 22Sep2009                  

 ----------------------------------------------------------------------------- 
|                                                                             |
|           W    W    AA    RRRRR   N    N  II  N    N   GGGG   !!!           |
|           W    W   A  A   R    R  NN   N  II  NN   N  G    G  !!!           |
|           W    W  A    A  R    R  N N  N  II  N N  N  G       !!!           |
|           W WW W  AAAAAA  RRRRR   N  N N  II  N  N N  G  GGG   !            |
|           WW  WW  A    A  R   R   N   NN  II  N   NN  G    G                |
|           W    W  A    A  R    R  N    N  II  N    N   GGGG   !!!           |
|                                                                             |
|      For optimal performance we recommend to set                            |
|        NCORE= 4 - approx SQRT( number of cores)                             |
|      NCORE specifies how many cores store one orbital (NPAR=cpu/NCORE).     |
|      This setting can  greatly improve the performance of VASP for DFT.     |
|      The default,   NCORE=1            might be grossly inefficient         |
|      on modern multi-core architectures or massively parallel machines.     |
|      Do your own testing !!!!                                               |
|      Unfortunately you need to use the default for GW and RPA calculations. |
|      (for HF NCORE is supported but not extensively tested yet)             |
|                                                                             |
 ----------------------------------------------------------------------------- 

 POTCAR:    PAW_PBE In 08Apr2002                  
   VRHFIN =In: s2p1                                                             
   LEXCH  = PE                                                                  
   EATOM  =    53.7908 eV,    3.9535 Ry                                         
                                                                                
   TITEL  = PAW_PBE In 08Apr2002                                                
   LULTRA =        F    use ultrasoft PP ?                                      
   IUNSCR =        1    unscreen: 0-lin 1-nonlin 2-no                           
   RPACOR =    2.400    partial core radius                                     
   POMASS =  114.820; ZVAL   =    3.000    mass and valenz                      
   RCORE  =    3.100    outmost cutoff radius                                   
   RWIGS  =    3.170; RWIGS  =    1.677    wigner-seitz radius (au A)           
   ENMAX  =   95.934; ENMIN  =   71.951 eV                                      
   ICORE  =        3    local potential                                         
   LCOR   =        T    correct aug charges                                     
   LPAW   =        T    paw PP                                                  
   EAUG   =  237.125                                                            
   DEXC   =    0.000                                                            
   RMAX   =    3.168    core radius for proj-oper                               
   RAUG   =    1.300    factor for augmentation sphere                          
   RDEP   =    3.187    radius for radial grids                                 
   RDEPT  =    2.711    core radius for aug-charge                              
                                                                                
   Atomic configuration                                                         
   13 entries                                                                   
     n  l   j            E        occ.                                          
     1  0  0.50    -27747.9169   2.0000                                         
     2  0  0.50     -4154.4438   2.0000                                         
     2  1  1.50     -3728.4305   6.0000                                         
     3  0  0.50      -788.3680   2.0000                                         
     3  1  1.50      -648.9215   6.0000                                         
     3  2  2.50      -432.5893  10.0000                                         
     4  0  0.50      -119.6363   2.0000                                         
     4  1  1.50       -78.1086   6.0000                                         
     4  2  2.50       -18.6227  10.0000                                         
     5  0  0.50        -8.2107   2.0000                                         
     5  1  0.50        -2.5185   1.0000                                         
     5  2  2.50        -1.3606   0.0000                                         
     4  3  2.50        -2.7212   0.0000                                         
   Description                                                                  
     l       E           TYP  RCUT    TYP  RCUT                                 
     0     -8.2107306     23  3.100                                             
     0     -6.1485975     23  3.100                                             
     1     -2.5184867     23  3.100                                             
     1      3.2427302     23  3.100                                             
     2     -1.3605826     23  3.100                                             
     3     -1.3605826     23  3.100                                             
  local pseudopotential read in
  partial core-charges read in
  partial kinetic energy density read in
  atomic valenz-charges read in
  non local Contribution for L=           0  read in
    real space projection operators read in
  non local Contribution for L=           0  read in
    real space projection operators read in
  non local Contribution for L=           1  read in
    real space projection operators read in
  non local Contribution for L=           1  read in
    real space projection operators read in
  non local Contribution for L=           2  read in
    real space projection operators read in
    PAW grid and wavefunctions read in
 
   number of l-projection  operators is LMAX  =           5
   number of lm-projection operators is LMMAX =          13
 
 POTCAR:    PAW_PBE As 22Sep2009                  
   VRHFIN =As: s2p3                                                             
   LEXCH  = PE                                                                  
   EATOM  =   170.1867 eV,   12.5084 Ry                                         
                                                                                
   TITEL  = PAW_PBE As 22Sep2009                                                
   LULTRA =        F    use ultrasoft PP ?                                      
   IUNSCR =        1    unscreen: 0-lin 1-nonlin 2-no                           
   RPACOR =    1.900    partial core radius                                     
   POMASS =   74.922; ZVAL   =    5.000    mass and valenz                      
   RCORE  =    2.100    outmost cutoff radius                                   
   RWIGS  =    2.300; RWIGS  =    1.217    wigner-seitz radius (au A)           
   ENMAX  =  208.702; ENMIN  =  156.526 eV                                      
   ICORE  =        3    local potential                                         
   LCOR   =        T    correct aug charges                                     
   LPAW   =        T    paw PP                                                  
   EAUG   =  462.758                                                            
   DEXC   =    0.000                                                            
   RMAX   =    2.144    core radius for proj-oper                               
   RAUG   =    1.300    factor for augmentation sphere                          
   RDEP   =    2.140    radius for radial grids                                 
   RDEPT  =    1.956    core radius for aug-charge                              
                                                                                
   Atomic configuration                                                         
   10 entries                                                                   
     n  l   j            E        occ.                                          
     1  0  0.50    -11718.0418   2.0000                                         
     2  0  0.50     -1486.5454   2.0000                                         
     2  1  1.50     -1303.3889   6.0000                                         
     3  0  0.50      -190.2849   2.0000                                         
     3  1  1.50      -133.6555   6.0000                                         
     3  2  2.50       -40.6443  10.0000                                         
     4  0  0.50       -14.4936   2.0000                                         
     4  1  0.50        -5.1947   3.0000                                         
     4  2  1.50        -5.4423   0.0000                                         
     4  3  2.50        -5.4423   0.0000                                         
   Description                                                                  
     l       E           TYP  RCUT    TYP  RCUT                                 
     0    -14.4935570     23  2.100                                             
     0    -11.9212055     23  2.100                                             
     1     -5.1947127     23  2.100                                             
     1     27.2116520     23  2.100                                             
     2     -5.4423304     23  2.100                                             
     3     -1.3605826      7  2.100                                             
  local pseudopotential read in
  partial core-charges read in
  partial kinetic energy density read in
  atomic valenz-charges read in
  non local Contribution for L=           0  read in
    real space projection operators read in
  non local Contribution for L=           0  read in
    real space projection operators read in
  non local Contribution for L=           1  read in
    real space projection operators read in
  non local Contribution for L=           1  read in
    real space projection operators read in
  non local Contribution for L=           2  read in
    real space projection operators read in
    PAW grid and wavefunctions read in
 
   number of l-projection  operators is LMAX  =           5
   number of lm-projection operators is LMMAX =          13
 
  PAW_PBE In 08Apr2002                  :
 energy of atom  1       EATOM=  -53.7908
 kinetic energy error for atom=    0.0001 (will be added to EATOM!!)
  PAW_PBE As 22Sep2009                  :
 energy of atom  2       EATOM= -170.1867
 kinetic energy error for atom=    0.0022 (will be added to EATOM!!)
 
 
 POSCAR: In As                                   
  positions in direct lattice
  No initial velocities read in
 exchange correlation table for  LEXCH =        8
   RHO(1)=    0.500       N(1)  =     2000
   RHO(2)=  100.500       N(2)  =     4000
 


--------------------------------------------------------------------------------------------------------


 ion  position               nearest neighbor table
   1  0.000  0.000  0.000-   2 2.62   2 2.62   2 2.62   2 2.62
   2  0.250  0.250  0.250-   1 2.62   1 2.62   1 2.62   1 2.62
 
  LATTYP: Found a face centered cubic cell.
 ALAT       =     6.0584000000
  
  Lattice vectors:
  
 A1 = (   0.0000000000,   3.0292000000,   3.0292000000)
 A2 = (   3.0292000000,   0.0000000000,   3.0292000000)
 A3 = (   3.0292000000,   3.0292000000,   0.0000000000)


Analysis of symmetry for initial positions (statically):
=====================================================================
 Subroutine PRICEL returns:
 Original cell was already a primitive cell.
 

 Routine SETGRP: Setting up the symmetry group for a 
 face centered cubic supercell.


 Subroutine GETGRP returns: Found 24 space group operations
 (whereof 24 operations were pure point group operations)
 out of a pool of 48 trial point group operations.


The static configuration has the point symmetry T_d .


Analysis of symmetry for dynamics (positions and initial velocities):
=====================================================================
 Subroutine PRICEL returns:
 Original cell was already a primitive cell.
 

 Routine SETGRP: Setting up the symmetry group for a 
 face centered cubic supercell.


 Subroutine GETGRP returns: Found 24 space group operations
 (whereof 24 operations were pure point group operations)
 out of a pool of 48 trial point group operations.


The dynamic configuration has the point symmetry T_d .


Analysis of structural, dynamic, and magnetic symmetry:
=====================================================================
 Subroutine PRICEL returns:
 Original cell was already a primitive cell.
 

 Routine SETGRP: Setting up the symmetry group for a 
 face centered cubic supercell.


 Subroutine GETGRP returns: Found 24 space group operations
 (whereof 24 operations were pure point group operations)
 out of a pool of 48 trial point group operations.


The (compounded) configuration has the point symmetry T_d .


 Subroutine INISYM returns: Found 24 space group operations
 (whereof 24 operations are pure point group operations),
 and found     1 'primitive' translations

 
 
 KPOINTS: KPOINTS created by Atomic Simulation Env

Automatic generation of k-mesh.
Space group operators:
 irot       det(A)        alpha          n_x          n_y          n_z        tau_x        tau_y        tau_z
    1     1.000000     0.000000     1.000000     0.000000     0.000000     0.000000     0.000000     0.000000
    2     1.000000   120.000000    -0.577350    -0.577350    -0.577350     0.000000     0.000000     0.000000
    3     1.000000   120.000000     0.577350     0.577350     0.577350     0.000000     0.000000     0.000000
    4    -1.000000    90.000000     0.000000     0.000000    -1.000000     0.000000     0.000000     0.000000
    5    -1.000000   180.000000     0.000000     0.707107     0.707107     0.000000     0.000000     0.000000
    6    -1.000000    90.000000     0.000000     1.000000     0.000000     0.000000     0.000000     0.000000
    7     1.000000   180.000000     0.000000     0.000000     1.000000     0.000000     0.000000     0.000000
    8     1.000000   120.000000    -0.577350     0.577350     0.577350     0.000000     0.000000     0.000000
    9     1.000000   120.000000    -0.577350     0.577350    -0.577350     0.000000     0.000000     0.000000
   10    -1.000000    90.000000     0.000000     0.000000     1.000000     0.000000     0.000000     0.000000
   11    -1.000000    90.000000    -1.000000     0.000000     0.000000     0.000000     0.000000     0.000000
   12    -1.000000   180.000000     0.707107     0.000000     0.707107     0.000000     0.000000     0.000000
   13     1.000000   120.000000     0.577350    -0.577350     0.577350     0.000000     0.000000     0.000000
   14     1.000000   120.000000    -0.577350    -0.577350     0.577350     0.000000     0.000000     0.000000
   15     1.000000   180.000000     1.000000     0.000000     0.000000     0.000000     0.000000     0.000000
   16    -1.000000    90.000000     0.000000    -1.000000     0.000000     0.000000     0.000000     0.000000
   17    -1.000000   180.000000     0.707107     0.707107     0.000000     0.000000     0.000000     0.000000
   18    -1.000000    90.000000     1.000000     0.000000     0.000000     0.000000     0.000000     0.000000
   19     1.000000   120.000000     0.577350    -0.577350    -0.577350     0.000000     0.000000     0.000000
   20     1.000000   180.000000     0.000000     1.000000     0.000000     0.000000     0.000000     0.000000
   21     1.000000   120.000000     0.577350     0.577350    -0.577350     0.000000     0.000000     0.000000
   22    -1.000000   180.000000     0.000000    -0.707107     0.707107     0.000000     0.000000     0.000000
   23    -1.000000   180.000000     0.707107    -0.707107     0.000000     0.000000     0.000000     0.000000
   24    -1.000000   180.000000     0.707107     0.000000    -0.707107     0.000000     0.000000     0.000000
 
 Subroutine IBZKPT returns following result:
 ===========================================
 
 Found     22 irreducible k-points:
 
 Following reciprocal coordinates:
            Coordinates               Weight
  0.000000  0.000000  0.000000      1.000000
  0.166667  0.000000  0.000000      4.000000
  0.333333  0.000000  0.000000      4.000000
  0.500000  0.000000  0.000000      4.000000
 -0.333333  0.000000  0.000000      4.000000
 -0.166667  0.000000  0.000000      4.000000
  0.166667  0.166667  0.000000      6.000000
  0.333333  0.166667  0.000000     12.000000
  0.500000  0.166667  0.000000     12.000000
 -0.333333  0.166667  0.000000     12.000000
 -0.166667  0.166667  0.000000     12.000000
  0.333333  0.333333  0.000000      6.000000
  0.500000  0.333333  0.000000     12.000000
 -0.333333  0.333333  0.000000     12.000000
 -0.166667  0.333333  0.000000     12.000000
  0.500000  0.500000  0.000000      3.000000
 -0.333333  0.500000  0.000000     12.000000
 -0.166667  0.500000  0.000000     12.000000
 -0.166667 -0.333333  0.000000     12.000000
  0.500000  0.333333  0.166667     24.000000
 -0.333333  0.333333  0.166667     24.000000
 -0.333333  0.500000  0.166667     12.000000
 
 Following cartesian coordinates:
            Coordinates               Weight
  0.000000  0.000000  0.000000      1.000000
 -0.027510  0.027510  0.027510      4.000000
 -0.055020  0.055020  0.055020      4.000000
 -0.082530  0.082530  0.082530      4.000000
  0.055020 -0.055020 -0.055020      4.000000
  0.027510 -0.027510 -0.027510      4.000000
  0.000000  0.000000  0.055020      6.000000
 -0.027510  0.027510  0.082530     12.000000
 -0.055020  0.055020  0.110040     12.000000
  0.082530 -0.082530 -0.027510     12.000000
  0.055020 -0.055020  0.000000     12.000000
  0.000000  0.000000  0.110040      6.000000
 -0.027510  0.027510  0.137550     12.000000
  0.110040 -0.110040  0.000000     12.000000
  0.082530 -0.082530  0.027510     12.000000
  0.000000  0.000000  0.165060      3.000000
  0.137550 -0.137550  0.027510     12.000000
  0.110040 -0.110040  0.055020     12.000000
 -0.027510  0.027510 -0.082530     12.000000
  0.000000  0.055020  0.110040     24.000000
  0.137550 -0.082530 -0.027510     24.000000
  0.165060 -0.110040 -0.000000     12.000000
 


--------------------------------------------------------------------------------------------------------




 Dimension of arrays:
   k-points           NKPTS =     22   k-points in BZ     NKDIM =     22   number of bands    NBANDS=     56
   number of dos      NEDOS =    301   number of ions     NIONS =      2
   non local maximal  LDIM  =      5   non local SUM 2l+1 LMDIM =     13
   total plane-waves  NPLWV =   5832
   max r-space proj   IRMAX =      1   max aug-charges    IRDMAX=  12033
   dimension x,y,z NGX =    18 NGY =   18 NGZ =   18
   dimension x,y,z NGXF=    36 NGYF=   36 NGZF=   36
   support grid    NGXF=    36 NGYF=   36 NGZF=   36
   ions per type =               1   1
   NGX,Y,Z   is equivalent  to a cutoff of   6.99,  6.99,  6.99 a.u.
   NGXF,Y,Z  is equivalent  to a cutoff of  13.97, 13.97, 13.97 a.u.

 SYSTEM =  unknown system                          
 POSCAR =  In As                                   

 Startparameter for this run:
   NWRITE =      2    write-flag & timer
   PREC   = n         normal or accurate (medium, high low for compatibility)
   ISTART =      0    job   : 0-new  1-cont  2-samecut
   ICHARG =      2    charge: 1-file 2-atom 10-const
   ISPIN  =      1    spin polarized calculation?
   LNONCOLLINEAR =      T non collinear calculations
   LSORBIT =      T    spin-orbit coupling
   INIWAV =      1    electr: 0-lowe 1-rand  2-diag
   LASPH  =      F    aspherical Exc in radial PAW
   METAGGA=      F    non-selfconsistent MetaGGA calc.

 Electronic Relaxation 1
   ENCUT  =  300.0 eV  22.05 Ry    4.70 a.u.   6.05  6.05  6.05*2*pi/ulx,y,z
   ENINI  =  300.0     initial cutoff
   ENAUG  =  462.8 eV  augmentation charge cutoff
   NELM   =     60;   NELMIN=  2; NELMDL= -5     # of ELM steps 
   EDIFF  = 0.1E-03   stopping-criterion for ELM
   LREAL  =      F    real-space projection
   NLSPLINE    = F    spline interpolate recip. space projectors
   LCOMPAT=      F    compatible to vasp.4.4
   GGA_COMPAT  = T    GGA compatible to vasp.4.4-vasp.4.6
   LMAXPAW     = -100 max onsite density
   LMAXMIX     =    4 max onsite mixed and CHGCAR
   VOSKOWN=      0    Vosko Wilk Nusair interpolation
   ROPT   =    0.00000   0.00000
 Ionic relaxation
   EDIFFG = 0.1E-02   stopping-criterion for IOM
   NSW    =      0    number of steps for IOM
   NBLOCK =      1;   KBLOCK =      1    inner block; outer block 
   IBRION =     -1    ionic relax: 0-MD 1-quasi-New 2-CG
   NFREE  =      0    steps in history (QN), initial steepest desc. (CG)
   ISIF   =      2    stress and relaxation
   IWAVPR =     10    prediction:  0-non 1-charg 2-wave 3-comb
   ISYM   =      2    0-nonsym 1-usesym 2-fastsym
   LCORR  =      T    Harris-Foulkes like correction to forces

   POTIM  = 0.5000    time-step for ionic-motion
   TEIN   =    0.0    initial temperature
   TEBEG  =    0.0;   TEEND  =   0.0 temperature during run
   SMASS  =  -3.00    Nose mass-parameter (am)
   estimated Nose-frequenzy (Omega)   =  0.10E-29 period in steps =****** mass=  -0.419E-27a.u.
   SCALEE = 1.0000    scale energy and forces
   NPACO  =    256;   APACO  = 16.0  distance and # of slots for P.C.
   PSTRESS=    0.0 pullay stress

  Mass of Ions in am
   POMASS = 114.82 74.92
  Ionic Valenz
   ZVAL   =   3.00  5.00
  Atomic Wigner-Seitz radii
   RWIGS  =  -1.00 -1.00
  virtual crystal weights 
   VCA    =   1.00  1.00
   NELECT =       8.0000    total number of electrons
   NUPDOWN=      -1.0000    fix difference up-down

 DOS related values:
   EMIN   =  10.00;   EMAX   =-10.00  energy-range for DOS
   EFERMI =   0.00
   ISMEAR =     1;   SIGMA  =   0.05  broadening in eV -4-tet -1-fermi 0-gaus

 Electronic relaxation 2 (details)
   IALGO  =     53    algorithm
   LDIAG  =      T    sub-space diagonalisation (order eigenvalues)
   LSUBROT=      F    optimize rotation matrix (better conditioning)
   TURBO    =      0    0=normal 1=particle mesh
   IRESTART =      0    0=no restart 2=restart with 2 vectors
   NREBOOT  =      0    no. of reboots
   NMIN     =      0    reboot dimension
   EREF     =   0.00    reference energy to select bands
   IMIX   =      4    mixing-type and parameters
     AMIX     =   0.40;   BMIX     =  1.00
     AMIX_MAG =   1.60;   BMIX_MAG =  1.00
     AMIN     =   0.10
     WC   =   100.;   INIMIX=   1;  MIXPRE=   1;  MAXMIX= -45

 Intra band minimization:
   WEIMIN = 0.0000     energy-eigenvalue tresh-hold
   EBREAK =  0.45E-06  absolut break condition
   DEPER  =   0.30     relativ break condition  

   TIME   =   0.40     timestep for ELM

  volume/ion in A,a.u.               =      27.80       187.58
  Fermi-wavevector in a.u.,A,eV,Ry     =   0.857894  1.621184 10.013641  0.735982
  Thomas-Fermi vector in A             =   1.975016
 
 Write flags
   LWAVE        =      T    write WAVECAR
   LDOWNSAMPLE  =      F    k-point downsampling of WAVECAR
   LCHARG       =      T    write CHGCAR
   LVTOT        =      F    write LOCPOT, total local potential
   LVHAR        =      F    write LOCPOT, Hartree potential only
   LELF         =      F    write electronic localiz. function (ELF)
   LORBIT       =      0    0 simple, 1 ext, 2 COOP (PROOUT), +10 PAW based schemes


 Dipole corrections
   LMONO  =      F    monopole corrections only (constant potential shift)
   LDIPOL =      F    correct potential (dipole corrections)
   IDIPOL =      0    1-x, 2-y, 3-z, 4-all directions 
   EPSILON=  1.0000000 bulk dielectric constant

 LDA+U is selected, type is set to LDAUTYPE =  2
   angular momentum for each species LDAUL =     1    1
   U (eV)           for each species LDAUU =   4.0-10.0
   J (eV)           for each species LDAUJ =   0.0  0.0
 Exchange correlation treatment:
   GGA     =    PE    GGA type
   LEXCH   =     8    internal setting for exchange type
   VOSKOWN=      0    Vosko Wilk Nusair interpolation
   LHFCALC =     F    Hartree Fock is set to
   LHFONE  =     F    Hartree Fock one center treatment
   AEXX    =    0.0000 exact exchange contribution

 Linear response parameters
   LEPSILON=     F    determine dielectric tensor
   LRPA    =     F    only Hartree local field effects (RPA)
   LNABLA  =     F    use nabla operator in PAW spheres
   LVEL    =     F    velocity operator in full k-point grid
   LINTERFAST=   F  fast interpolation
   KINTER  =     0    interpolate to denser k-point grid
   CSHIFT  =0.1000    complex shift for real part using Kramers Kronig
   OMEGAMAX=  -1.0    maximum frequency
   DEG_THRESHOLD= 0.2000000E-02 threshold for treating states as degnerate
   RTIME   =   -0.100 relaxation time in fs
  (WPLASMAI=    0.000 imaginary part of plasma frequency in eV, 0.658/RTIME)
   DFIELD  = 0.0000000 0.0000000 0.0000000 field for delta impulse in time
 
 Orbital magnetization related:
   ORBITALMAG=     F  switch on orbital magnetization
   LCHIMAG   =     F  perturbation theory with respect to B field
   DQ        =  0.001000  dq finite difference perturbation B field
   LLRAUG    =     F  two centre corrections for induced B field



--------------------------------------------------------------------------------------------------------


 Static calculation
 charge density and potential will be updated during run
 non collinear spin polarized calculation
 Conjugate gradient for all bands (Freysoldt, et al. PRB 79, 241103 (2009))
 perform sub-space diagonalisation
    before iterative eigenvector-optimisation
 modified Broyden-mixing scheme, WC =      100.0
 initial mixing is a Kerker type mixing with AMIX =  0.4000 and BMIX =      1.0000
 Hartree-type preconditioning will be used
 using additional bands           52
 reciprocal scheme for non local part
 use partial core corrections
 no Harris-corrections to forces 
 use gradient corrections 
 use of overlap-Matrix (Vanderbilt PP)
 Methfessel and Paxton  Order N= 1 SIGMA  =   0.05


--------------------------------------------------------------------------------------------------------


  energy-cutoff  :      300.00
  volume of cell :       55.59
      direct lattice vectors                 reciprocal lattice vectors
     0.000000000  3.029200000  3.029200000    -0.165060082  0.165060082  0.165060082
     3.029200000  0.000000000  3.029200000     0.165060082 -0.165060082  0.165060082
     3.029200000  3.029200000  0.000000000     0.165060082  0.165060082 -0.165060082

  length of vectors
     4.283935723  4.283935723  4.283935723     0.285892448  0.285892448  0.285892448


 
 k-points in units of 2pi/SCALE and weight: KPOINTS created by Atomic Simulation Env
   0.00000000  0.00000000  0.00000000       0.005
  -0.02751001  0.02751001  0.02751001       0.019
  -0.05502003  0.05502003  0.05502003       0.019
  -0.08253004  0.08253004  0.08253004       0.019
   0.05502003 -0.05502003 -0.05502003       0.019
   0.02751001 -0.02751001 -0.02751001       0.019
   0.00000000  0.00000000  0.05502003       0.028
  -0.02751001  0.02751001  0.08253004       0.056
  -0.05502003  0.05502003  0.11004005       0.056
   0.08253004 -0.08253004 -0.02751001       0.056
   0.05502003 -0.05502003  0.00000000       0.056
   0.00000000  0.00000000  0.11004005       0.028
  -0.02751001  0.02751001  0.13755007       0.056
   0.11004005 -0.11004005  0.00000000       0.056
   0.08253004 -0.08253004  0.02751001       0.056
   0.00000000  0.00000000  0.16506008       0.014
   0.13755007 -0.13755007  0.02751001       0.056
   0.11004005 -0.11004005  0.05502003       0.056
  -0.02751001  0.02751001 -0.08253004       0.056
   0.00000000  0.05502003  0.11004005       0.111
   0.13755007 -0.08253004 -0.02751001       0.111
   0.16506008 -0.11004005 -0.00000000       0.056
 
 k-points in reciprocal lattice and weights: KPOINTS created by Atomic Simulation Env
   0.00000000  0.00000000  0.00000000       0.005
   0.16666667  0.00000000  0.00000000       0.019
   0.33333333  0.00000000  0.00000000       0.019
   0.50000000  0.00000000  0.00000000       0.019
  -0.33333333  0.00000000  0.00000000       0.019
  -0.16666667  0.00000000  0.00000000       0.019
   0.16666667  0.16666667  0.00000000       0.028
   0.33333333  0.16666667  0.00000000       0.056
   0.50000000  0.16666667  0.00000000       0.056
  -0.33333333  0.16666667  0.00000000       0.056
  -0.16666667  0.16666667  0.00000000       0.056
   0.33333333  0.33333333  0.00000000       0.028
   0.50000000  0.33333333  0.00000000       0.056
  -0.33333333  0.33333333  0.00000000       0.056
  -0.16666667  0.33333333  0.00000000       0.056
   0.50000000  0.50000000  0.00000000       0.014
  -0.33333333  0.50000000  0.00000000       0.056
  -0.16666667  0.50000000  0.00000000       0.056
  -0.16666667 -0.33333333  0.00000000       0.056
   0.50000000  0.33333333  0.16666667       0.111
  -0.33333333  0.33333333  0.16666667       0.111
  -0.33333333  0.50000000  0.16666667       0.056
 
 position of ions in fractional coordinates (direct lattice) 
   0.00000000  0.00000000  0.00000000
   0.25000000  0.25000000  0.25000000
 
 position of ions in cartesian coordinates  (Angst):
   0.00000000  0.00000000  0.00000000
   1.51460000  1.51460000  1.51460000
 
 Euler angles ALPHA=     0.0000000  BETA=     0.0000000

 transformation matrix from SAXIS to cartesian coordinates
 ---------------------------------------------------------
     1.0000000 m_x     0.0000000 m_y     0.0000000 m_z
     0.0000000 m_x     1.0000000 m_y     0.0000000 m_z
     0.0000000 m_x     0.0000000 m_y     1.0000000 m_z

 transformation matrix from cartesian coordinates to SAXIS
 ---------------------------------------------------------
     1.0000000 m_x     0.0000000 m_y     0.0000000 m_z
     0.0000000 m_x     1.0000000 m_y     0.0000000 m_z
     0.0000000 m_x     0.0000000 m_y     1.0000000 m_z




--------------------------------------------------------------------------------------------------------


 k-point  1 :   0.0000 0.0000 0.0000  plane waves:    1290
 k-point  2 :   0.1667 0.0000 0.0000  plane waves:    1298
 k-point  3 :   0.3333 0.0000 0.0000  plane waves:    1292
 k-point  4 :   0.5000 0.0000 0.0000  plane waves:    1304
 k-point  5 :  -0.3333 0.0000 0.0000  plane waves:    1292
 k-point  6 :  -0.1667 0.0000 0.0000  plane waves:    1298
 k-point  7 :   0.1667 0.1667 0.0000  plane waves:    1306
 k-point  8 :   0.3333 0.1667 0.0000  plane waves:    1300
 k-point  9 :   0.5000 0.1667 0.0000  plane waves:    1324
 k-point 10 :  -0.3333 0.1667 0.0000  plane waves:    1318
 k-point 11 :  -0.1667 0.1667 0.0000  plane waves:    1288
 k-point 12 :   0.3333 0.3333 0.0000  plane waves:    1288
 k-point 13 :   0.5000 0.3333 0.0000  plane waves:    1320
 k-point 14 :  -0.3333 0.3333 0.0000  plane waves:    1316
 k-point 15 :  -0.1667 0.3333 0.0000  plane waves:    1318
 k-point 16 :   0.5000 0.5000 0.0000  plane waves:    1304
 k-point 17 :  -0.3333 0.5000 0.0000  plane waves:    1320
 k-point 18 :  -0.1667 0.5000 0.0000  plane waves:    1324
 k-point 19 :  -0.1667-0.3333 0.0000  plane waves:    1300
 k-point 20 :   0.5000 0.3333 0.1667  plane waves:    1312
 k-point 21 :  -0.3333 0.3333 0.1667  plane waves:    1320
 k-point 22 :  -0.3333 0.5000 0.1667  plane waves:    1324

 maximum and minimum number of plane-waves per node :      1324     1288

 maximum number of plane-waves:      1324
 maximum index in each direction: 
   IXMAX=    6   IYMAX=    6   IZMAX=    6
   IXMIN=   -6   IYMIN=   -6   IZMIN=   -6


 serial   3D FFT for wavefunctions
 parallel 3D FFT for charge:
    minimum data exchange during FFTs selected (reduces bandwidth)


 total amount of memory used by VASP MPI-rank0    35891. kBytes
=======================================================================

   base      :      30000. kBytes
   nonl-proj :       3096. kBytes
   fftplans  :        138. kBytes
   grid      :       1057. kBytes
   one-center:         64. kBytes
   wavefun   :       1536. kBytes
 
     INWAV:  cpu time    0.0000: real time    0.0002
 Broyden mixing: mesh for mixing (old mesh)
   NGX = 13   NGY = 13   NGZ = 13
  (NGX  = 36   NGY  = 36   NGZ  = 36)
  gives a total of   2197 points

 initial charge density was supplied:
 charge density of overlapping atoms calculated
 number of electron       8.0000000 magnetization       0.0000000      0.0000000      0.0000000
 keeping initial charge density in first step


--------------------------------------------------------------------------------------------------------


 Maximum index for augmentation-charges          559 (set IRDMAX)


--------------------------------------------------------------------------------------------------------


 First call to EWALD:  gamma=   0.464
 Maximum number of real-space cells 3x 3x 3
 Maximum number of reciprocal cells 3x 3x 3

    FEWALD:  cpu time    0.0017: real time    0.0018


--------------------------------------- Iteration      1(   1)  ---------------------------------------


    POTLOK:  cpu time    0.0087: real time    0.0089
    SETDIJ:  cpu time    0.0104: real time    0.0105
    TRIAL :  cpu time    1.5204: real time    1.5217
    CORREC:  cpu time    0.0005: real time    0.0005
    --------------------------------------------
      LOOP:  cpu time    1.5416: real time    1.5453

 eigenvalue-minimisations  :  3696
 total energy-change (2. order) : 0.1917532E+01  (-0.3002947E+03)
 number of electron       8.0000000 magnetization       0.0000000      0.0000000      0.0000000
 augmentation part        8.0000000 magnetization       0.0000000      0.0000000      0.0000000

 Free energy of the ion-electron system (eV)
  ---------------------------------------------------
  alpha Z        PSCENC =         6.67624893
  Ewald energy   TEWEN  =      -213.84743004
  -Hartree energ DENC   =       -21.29595069
  -exchange      EXHF   =         0.00000000
  -V(xc)+E(xc)   XCENC  =       -67.69638858
  PAW double counting   =       241.28716127     -161.69725911
  entropy T*S    EENTRO =         0.00000676
  eigenvalues    EBANDS =        -5.48406601
  atomic energy  EATOM  =       223.97520926
  ---------------------------------------------------
  free energy    TOTEN  =         1.91753180 eV

  energy without entropy =        1.91752504  energy(sigma->0) =        1.91752954


--------------------------------------------------------------------------------------------------------




--------------------------------------- Iteration      1(   2)  ---------------------------------------


    TRIAL :  cpu time    2.7658: real time    2.7674
    CORREC:  cpu time    0.0002: real time    0.0002
    --------------------------------------------
      LOOP:  cpu time    2.7675: real time    2.7698

 eigenvalue-minimisations  :  4928
 total energy-change (2. order) :-0.1532382E+02  (-0.1532383E+02)
 number of electron       8.0000000 magnetization       0.0000000      0.0000000      0.0000000
 augmentation part        8.0000000 magnetization       0.0000000      0.0000000      0.0000000

 Free energy of the ion-electron system (eV)
  ---------------------------------------------------
  alpha Z        PSCENC =         6.67624893
  Ewald energy   TEWEN  =      -213.84743004
  -Hartree energ DENC   =       -21.29595069
  -exchange      EXHF   =         0.00000000
  -V(xc)+E(xc)   XCENC  =       -67.69638858
  PAW double counting   =       241.28716127     -161.69725911
  entropy T*S    EENTRO =         0.00002887
  eigenvalues    EBANDS =       -20.80790480
  atomic energy  EATOM  =       223.97520926
  ---------------------------------------------------
  free energy    TOTEN  =       -13.40628488 eV

  energy without entropy =      -13.40631375  energy(sigma->0) =      -13.40629450


--------------------------------------------------------------------------------------------------------




--------------------------------------- Iteration      1(   3)  ---------------------------------------


    TRIAL :  cpu time    2.7802: real time    2.7818
    CORREC:  cpu time    0.0002: real time    0.0002
    --------------------------------------------
      LOOP:  cpu time    2.7817: real time    2.7844

 eigenvalue-minimisations  :  4928
 total energy-change (2. order) :-0.1379889E+00  (-0.1379869E+00)
 number of electron       8.0000000 magnetization       0.0000000      0.0000000      0.0000000
 augmentation part        8.0000000 magnetization       0.0000000      0.0000000      0.0000000

 Free energy of the ion-electron system (eV)
  ---------------------------------------------------
  alpha Z        PSCENC =         6.67624893
  Ewald energy   TEWEN  =      -213.84743004
  -Hartree energ DENC   =       -21.29595069
  -exchange      EXHF   =         0.00000000
  -V(xc)+E(xc)   XCENC  =       -67.69638858
  PAW double counting   =       241.28716127     -161.69725911
  entropy T*S    EENTRO =         0.00002685
  eigenvalues    EBANDS =       -20.94589171
  atomic energy  EATOM  =       223.97520926
  ---------------------------------------------------
  free energy    TOTEN  =       -13.54427381 eV

  energy without entropy =      -13.54430066  energy(sigma->0) =      -13.54428276


--------------------------------------------------------------------------------------------------------




--------------------------------------- Iteration      1(   4)  ---------------------------------------


    TRIAL :  cpu time    2.7560: real time    2.7572
    CORREC:  cpu time    0.0002: real time    0.0002
    --------------------------------------------
      LOOP:  cpu time    2.7566: real time    2.7590

 eigenvalue-minimisations  :  4928
 total energy-change (2. order) :-0.9461999E-03  (-0.9462000E-03)
 number of electron       8.0000000 magnetization       0.0000000      0.0000000      0.0000000
 augmentation part        8.0000000 magnetization       0.0000000      0.0000000      0.0000000

 Free energy of the ion-electron system (eV)
  ---------------------------------------------------
  alpha Z        PSCENC =         6.67624893
  Ewald energy   TEWEN  =      -213.84743004
  -Hartree energ DENC   =       -21.29595069
  -exchange      EXHF   =         0.00000000
  -V(xc)+E(xc)   XCENC  =       -67.69638858
  PAW double counting   =       241.28716127     -161.69725911
  entropy T*S    EENTRO =         0.00002685
  eigenvalues    EBANDS =       -20.94683791
  atomic energy  EATOM  =       223.97520926
  ---------------------------------------------------
  free energy    TOTEN  =       -13.54522001 eV

  energy without entropy =      -13.54524686  energy(sigma->0) =      -13.54522896


--------------------------------------------------------------------------------------------------------




--------------------------------------- Iteration      1(   5)  ---------------------------------------


    TRIAL :  cpu time    2.7933: real time    2.7964
    CORREC:  cpu time    0.0002: real time    0.0002
    CHARGE:  cpu time    0.0201: real time    0.0205
    --------------------------------------------
      LOOP:  cpu time    2.8138: real time    2.8174

 eigenvalue-minimisations  :  4928
 total energy-change (2. order) :-0.9565945E-05  (-0.9565936E-05)
 number of electron       8.0000014 magnetization      -0.0000000     -0.0000000      0.0000000
 augmentation part       -1.4175397 magnetization      -0.0000000     -0.0000000      0.0000000

 Free energy of the ion-electron system (eV)
  ---------------------------------------------------
  alpha Z        PSCENC =         6.67624893
  Ewald energy   TEWEN  =      -213.84743004
  -Hartree energ DENC   =       -21.29595069
  -exchange      EXHF   =         0.00000000
  -V(xc)+E(xc)   XCENC  =       -67.69638858
  PAW double counting   =       241.28716127     -161.69725911
  entropy T*S    EENTRO =         0.00002685
  eigenvalues    EBANDS =       -20.94684747
  atomic energy  EATOM  =       223.97520926
  ---------------------------------------------------
  free energy    TOTEN  =       -13.54522957 eV

  energy without entropy =      -13.54525642  energy(sigma->0) =      -13.54523852


--------------------------------------------------------------------------------------------------------




--------------------------------------- Iteration      1(   6)  ---------------------------------------


    POTLOK:  cpu time    0.0074: real time    0.0090
    SETDIJ:  cpu time    0.0091: real time    0.0091
    TRIAL :  cpu time    0.2447: real time    0.2492
    CORREC:  cpu time    0.0002: real time    0.0002
    CHARGE:  cpu time    0.0185: real time    0.0185
    --------------------------------------------
      LOOP:  cpu time    0.2815: real time    0.2885

 eigenvalue-minimisations  :     0
 total energy-change (2. order) : 0.4045458E+01  (-0.1995468E+01)
 number of electron       8.0000013 magnetization      -0.0000000      0.0000000      0.0000000
 augmentation part       -1.4245618 magnetization      -0.0000000      0.0000000      0.0000000

 Free energy of the ion-electron system (eV)
  ---------------------------------------------------
  alpha Z        PSCENC =         6.67624893
  Ewald energy   TEWEN  =      -213.84743004
  -Hartree energ DENC   =       -40.10196863
  -exchange      EXHF   =         0.00000000
  -V(xc)+E(xc)   XCENC  =       -65.58185166
  PAW double counting   =       571.82241099     -496.60981252
  entropy T*S    EENTRO =         0.00002684
  eigenvalues    EBANDS =         4.16739524
  atomic energy  EATOM  =       223.97520926
  ---------------------------------------------------
  free energy    TOTEN  =        -9.49977158 eV

  energy without entropy =       -9.49979843  energy(sigma->0) =       -9.49978053


--------------------------------------------------------------------------------------------------------




--------------------------------------- Iteration      1(   7)  ---------------------------------------


    POTLOK:  cpu time    0.0070: real time    0.0070
    SETDIJ:  cpu time    0.0092: real time    0.0092
    TRIAL :  cpu time    0.2365: real time    0.2401
    CORREC:  cpu time    0.0002: real time    0.0002
    CHARGE:  cpu time    0.0185: real time    0.0185
    --------------------------------------------
      LOOP:  cpu time    0.2718: real time    0.2753

 eigenvalue-minimisations  :     0
 total energy-change (2. order) :-0.1545926E+01  (-0.1045803E+01)
 number of electron       8.0000012 magnetization      -0.0000000     -0.0000000     -0.0000000
 augmentation part       -1.4418806 magnetization      -0.0000000     -0.0000000     -0.0000000

 Free energy of the ion-electron system (eV)
  ---------------------------------------------------
  alpha Z        PSCENC =         6.67624893
  Ewald energy   TEWEN  =      -213.84743004
  -Hartree energ DENC   =       -35.00464260
  -exchange      EXHF   =         0.00000000
  -V(xc)+E(xc)   XCENC  =       -65.98646413
  PAW double counting   =       550.11305611     -473.74011400
  entropy T*S    EENTRO =         0.00002684
  eigenvalues    EBANDS =        -3.23158748
  atomic energy  EATOM  =       223.97520926
  ---------------------------------------------------
  free energy    TOTEN  =       -11.04569711 eV

  energy without entropy =      -11.04572395  energy(sigma->0) =      -11.04570606


--------------------------------------------------------------------------------------------------------




--------------------------------------- Iteration      1(   8)  ---------------------------------------


    POTLOK:  cpu time    0.0070: real time    0.0070
    SETDIJ:  cpu time    0.0089: real time    0.0089
    TRIAL :  cpu time    0.2359: real time    0.2395
    CORREC:  cpu time    0.0002: real time    0.0002
    CHARGE:  cpu time    0.0186: real time    0.0186
    --------------------------------------------
      LOOP:  cpu time    0.2711: real time    0.2762

 eigenvalue-minimisations  :     0
 total energy-change (2. order) :-0.6811151E+00  (-0.2113438E+00)
 number of electron       8.0000011 magnetization       0.0000000      0.0000000     -0.0000000
 augmentation part       -1.4593490 magnetization       0.0000000      0.0000000     -0.0000000

 Free energy of the ion-electron system (eV)
  ---------------------------------------------------
  alpha Z        PSCENC =         6.67624893
  Ewald energy   TEWEN  =      -213.84743004
  -Hartree energ DENC   =       -30.63180672
  -exchange      EXHF   =         0.00000000
  -V(xc)+E(xc)   XCENC  =       -66.35827215
  PAW double counting   =       529.37097234     -452.07205998
  entropy T*S    EENTRO =         0.00002684
  eigenvalues    EBANDS =        -8.83970073
  atomic energy  EATOM  =       223.97520926
  ---------------------------------------------------
  free energy    TOTEN  =       -11.72681225 eV

  energy without entropy =      -11.72683909  energy(sigma->0) =      -11.72682120


--------------------------------------------------------------------------------------------------------




--------------------------------------- Iteration      1(   9)  ---------------------------------------


    POTLOK:  cpu time    0.0070: real time    0.0070
    SETDIJ:  cpu time    0.0089: real time    0.0089
    TRIAL :  cpu time    0.2357: real time    0.2395
    CORREC:  cpu time    0.0002: real time    0.0002
    CHARGE:  cpu time    0.0185: real time    0.0185
    --------------------------------------------
      LOOP:  cpu time    0.2706: real time    0.2745

 eigenvalue-minimisations  :     0
 total energy-change (2. order) :-0.1031542E+00  (-0.2872803E-01)
 number of electron       8.0000011 magnetization      -0.0000000     -0.0000000      0.0000000
 augmentation part       -1.4708776 magnetization      -0.0000000     -0.0000000      0.0000000

 Free energy of the ion-electron system (eV)
  ---------------------------------------------------
  alpha Z        PSCENC =         6.67624893
  Ewald energy   TEWEN  =      -213.84743004
  -Hartree energ DENC   =       -28.34220728
  -exchange      EXHF   =         0.00000000
  -V(xc)+E(xc)   XCENC  =       -66.57332378
  PAW double counting   =       513.34875084     -435.60133819
  entropy T*S    EENTRO =         0.00002751
  eigenvalues    EBANDS =       -11.46590303
  atomic energy  EATOM  =       223.97520926
  ---------------------------------------------------
  free energy    TOTEN  =       -11.82996644 eV

  energy without entropy =      -11.82999395  energy(sigma->0) =      -11.82997561


--------------------------------------------------------------------------------------------------------




--------------------------------------- Iteration      1(  10)  ---------------------------------------


    POTLOK:  cpu time    0.0070: real time    0.0070
    SETDIJ:  cpu time    0.0089: real time    0.0089
    TRIAL :  cpu time    0.2358: real time    0.2393
    CORREC:  cpu time    0.0002: real time    0.0002
    CHARGE:  cpu time    0.0185: real time    0.0185
    --------------------------------------------
      LOOP:  cpu time    0.2707: real time    0.2742

 eigenvalue-minimisations  :     0
 total energy-change (2. order) :-0.1110248E-01  (-0.2210650E-01)
 number of electron       8.0000011 magnetization      -0.0000000     -0.0000000      0.0000000
 augmentation part       -1.4761616 magnetization      -0.0000000     -0.0000000      0.0000000

 Free energy of the ion-electron system (eV)
  ---------------------------------------------------
  alpha Z        PSCENC =         6.67624893
  Ewald energy   TEWEN  =      -213.84743004
  -Hartree energ DENC   =       -27.62729727
  -exchange      EXHF   =         0.00000000
  -V(xc)+E(xc)   XCENC  =       -66.65681505
  PAW double counting   =       503.45997655     -425.59824874
  entropy T*S    EENTRO =         0.00002856
  eigenvalues    EBANDS =       -12.22274007
  atomic energy  EATOM  =       223.97520926
  ---------------------------------------------------
  free energy    TOTEN  =       -11.84106892 eV

  energy without entropy =      -11.84109747  energy(sigma->0) =      -11.84107843


--------------------------------------------------------------------------------------------------------




--------------------------------------- Iteration      1(  11)  ---------------------------------------


    POTLOK:  cpu time    0.0070: real time    0.0070
    SETDIJ:  cpu time    0.0089: real time    0.0089
    TRIAL :  cpu time    0.2361: real time    0.2396
    CORREC:  cpu time    0.0002: real time    0.0002
    CHARGE:  cpu time    0.0185: real time    0.0185
    --------------------------------------------
      LOOP:  cpu time    0.2710: real time    0.2745

 eigenvalue-minimisations  :     0
 total energy-change (2. order) :-0.1497079E-01  (-0.1294495E-01)
 number of electron       8.0000011 magnetization       0.0000000     -0.0000000      0.0000000
 augmentation part       -1.4771554 magnetization       0.0000000     -0.0000000      0.0000000

 Free energy of the ion-electron system (eV)
  ---------------------------------------------------
  alpha Z        PSCENC =         6.67624893
  Ewald energy   TEWEN  =      -213.84743004
  -Hartree energ DENC   =       -27.70565454
  -exchange      EXHF   =         0.00000000
  -V(xc)+E(xc)   XCENC  =       -66.66607445
  PAW double counting   =       499.53079943     -421.71145237
  entropy T*S    EENTRO =         0.00002706
  eigenvalues    EBANDS =       -12.10771447
  atomic energy  EATOM  =       223.97520926
  ---------------------------------------------------
  free energy    TOTEN  =       -11.85603970 eV

  energy without entropy =      -11.85606676  energy(sigma->0) =      -11.85604872


--------------------------------------------------------------------------------------------------------




--------------------------------------- Iteration      1(  12)  ---------------------------------------


    POTLOK:  cpu time    0.0070: real time    0.0070
    SETDIJ:  cpu time    0.0089: real time    0.0089
    TRIAL :  cpu time    0.2360: real time    0.2397
    CORREC:  cpu time    0.0002: real time    0.0002
    CHARGE:  cpu time    0.0185: real time    0.0185
    --------------------------------------------
      LOOP:  cpu time    0.2709: real time    0.2746

 eigenvalue-minimisations  :     0
 total energy-change (2. order) :-0.8253275E-02  (-0.4051278E-02)
 number of electron       8.0000011 magnetization      -0.0000000      0.0000000     -0.0000000
 augmentation part       -1.4759947 magnetization       0.0000000      0.0000000     -0.0000000

 Free energy of the ion-electron system (eV)
  ---------------------------------------------------
  alpha Z        PSCENC =         6.67624893
  Ewald energy   TEWEN  =      -213.84743004
  -Hartree energ DENC   =       -28.00694397
  -exchange      EXHF   =         0.00000000
  -V(xc)+E(xc)   XCENC  =       -66.64775896
  PAW double counting   =       499.25883654     -421.51517092
  entropy T*S    EENTRO =         0.00002686
  eigenvalues    EBANDS =       -11.75731087
  atomic energy  EATOM  =       223.97520926
  ---------------------------------------------------
  free energy    TOTEN  =       -11.86429298 eV

  energy without entropy =      -11.86431984  energy(sigma->0) =      -11.86430193


--------------------------------------------------------------------------------------------------------




--------------------------------------- Iteration      1(  13)  ---------------------------------------


    POTLOK:  cpu time    0.0070: real time    0.0070
    SETDIJ:  cpu time    0.0089: real time    0.0089
    TRIAL :  cpu time    0.2359: real time    0.2394
    CORREC:  cpu time    0.0002: real time    0.0002
    CHARGE:  cpu time    0.0185: real time    0.0185
    --------------------------------------------
      LOOP:  cpu time    0.2709: real time    0.2744

 eigenvalue-minimisations  :     0
 total energy-change (2. order) :-0.2342843E-02  (-0.1447241E-02)
 number of electron       8.0000011 magnetization      -0.0000000      0.0000000      0.0000000
 augmentation part       -1.4742250 magnetization      -0.0000000      0.0000000      0.0000000

 Free energy of the ion-electron system (eV)
  ---------------------------------------------------
  alpha Z        PSCENC =         6.67624893
  Ewald energy   TEWEN  =      -213.84743004
  -Hartree energ DENC   =       -28.24787137
  -exchange      EXHF   =         0.00000000
  -V(xc)+E(xc)   XCENC  =       -66.62798223
  PAW double counting   =       500.22187604     -422.52972012
  entropy T*S    EENTRO =         0.00002685
  eigenvalues    EBANDS =       -11.48699316
  atomic energy  EATOM  =       223.97520926
  ---------------------------------------------------
  free energy    TOTEN  =       -11.86663582 eV

  energy without entropy =      -11.86666266  energy(sigma->0) =      -11.86664477


--------------------------------------------------------------------------------------------------------




--------------------------------------- Iteration      1(  14)  ---------------------------------------


    POTLOK:  cpu time    0.0069: real time    0.0069
    SETDIJ:  cpu time    0.0090: real time    0.0090
    TRIAL :  cpu time    0.2356: real time    0.2391
    CORREC:  cpu time    0.0002: real time    0.0002
    CHARGE:  cpu time    0.0185: real time    0.0185
    --------------------------------------------
      LOOP:  cpu time    0.2705: real time    0.2740

 eigenvalue-minimisations  :     0
 total energy-change (2. order) :-0.9721046E-03  (-0.8446032E-03)
 number of electron       8.0000011 magnetization      -0.0000000     -0.0000000      0.0000000
 augmentation part       -1.4727515 magnetization      -0.0000000     -0.0000000      0.0000000

 Free energy of the ion-electron system (eV)
  ---------------------------------------------------
  alpha Z        PSCENC =         6.67624893
  Ewald energy   TEWEN  =      -213.84743004
  -Hartree energ DENC   =       -28.36154979
  -exchange      EXHF   =         0.00000000
  -V(xc)+E(xc)   XCENC  =       -66.61555729
  PAW double counting   =       501.23334614     -423.55925914
  entropy T*S    EENTRO =         0.00002684
  eigenvalues    EBANDS =       -11.36864283
  atomic energy  EATOM  =       223.97520926
  ---------------------------------------------------
  free energy    TOTEN  =       -11.86760792 eV

  energy without entropy =      -11.86763477  energy(sigma->0) =      -11.86761687


--------------------------------------------------------------------------------------------------------




--------------------------------------- Iteration      1(  15)  ---------------------------------------


    POTLOK:  cpu time    0.0069: real time    0.0069
    SETDIJ:  cpu time    0.0090: real time    0.0090
    TRIAL :  cpu time    0.2355: real time    0.2393
    CORREC:  cpu time    0.0002: real time    0.0002
    CHARGE:  cpu time    0.0185: real time    0.0185
    --------------------------------------------
      LOOP:  cpu time    0.2704: real time    0.2742

 eigenvalue-minimisations  :     0
 total energy-change (2. order) :-0.5936906E-03  (-0.3401265E-03)
 number of electron       8.0000011 magnetization       0.0000000     -0.0000000      0.0000000
 augmentation part       -1.4718802 magnetization       0.0000000     -0.0000000      0.0000000

 Free energy of the ion-electron system (eV)
  ---------------------------------------------------
  alpha Z        PSCENC =         6.67624893
  Ewald energy   TEWEN  =      -213.84743004
  -Hartree energ DENC   =       -28.38655085
  -exchange      EXHF   =         0.00000000
  -V(xc)+E(xc)   XCENC  =       -66.61005102
  PAW double counting   =       501.92215521     -424.24594635
  entropy T*S    EENTRO =         0.00002684
  eigenvalues    EBANDS =       -11.35186360
  atomic energy  EATOM  =       223.97520926
  ---------------------------------------------------
  free energy    TOTEN  =       -11.86820161 eV

  energy without entropy =      -11.86822846  energy(sigma->0) =      -11.86821056


--------------------------------------------------------------------------------------------------------




--------------------------------------- Iteration      1(  16)  ---------------------------------------


    POTLOK:  cpu time    0.0069: real time    0.0069
    SETDIJ:  cpu time    0.0089: real time    0.0089
    TRIAL :  cpu time    0.2357: real time    0.2392
    CORREC:  cpu time    0.0002: real time    0.0002
    CHARGE:  cpu time    0.0185: real time    0.0185
    --------------------------------------------
      LOOP:  cpu time    0.2706: real time    0.2740

 eigenvalue-minimisations  :     0
 total energy-change (2. order) :-0.2085057E-03  (-0.7134217E-04)
 number of electron       8.0000011 magnetization      -0.0000000      0.0000000     -0.0000000
 augmentation part       -1.4715363 magnetization      -0.0000000      0.0000000     -0.0000000

 Free energy of the ion-electron system (eV)
  ---------------------------------------------------
  alpha Z        PSCENC =         6.67624893
  Ewald energy   TEWEN  =      -213.84743004
  -Hartree energ DENC   =       -28.37691226
  -exchange      EXHF   =         0.00000000
  -V(xc)+E(xc)   XCENC  =       -66.60843355
  PAW double counting   =       502.27325393     -424.58924981
  entropy T*S    EENTRO =         0.00002684
  eigenvalues    EBANDS =       -11.37112343
  atomic energy  EATOM  =       223.97520926
  ---------------------------------------------------
  free energy    TOTEN  =       -11.86841012 eV

  energy without entropy =      -11.86843696  energy(sigma->0) =      -11.86841907


--------------------------------------------------------------------------------------------------------




--------------------------------------- Iteration      1(  17)  ---------------------------------------


    POTLOK:  cpu time    0.0069: real time    0.0069
    SETDIJ:  cpu time    0.0090: real time    0.0090
    TRIAL :  cpu time    0.2355: real time    0.2389
    CORREC:  cpu time    0.0003: real time    0.0002
    EDDIAG:  cpu time    0.1513: real time    0.1544
    CHARGE:  cpu time    0.0184: real time    0.0184
    --------------------------------------------
      LOOP:  cpu time    0.4216: real time    0.4283

 eigenvalue-minimisations  :     0
 total energy-change (2. order) :-0.3214990E-04  (-0.1591508E-04)
 number of electron       8.0000011 magnetization       0.0000000     -0.0000000     -0.0000000
 augmentation part       -1.4715040 magnetization       0.0000000     -0.0000000     -0.0000000

 Free energy of the ion-electron system (eV)
  ---------------------------------------------------
  alpha Z        PSCENC =         6.67624893
  Ewald energy   TEWEN  =      -213.84743004
  -Hartree energ DENC   =       -28.36478994
  -exchange      EXHF   =         0.00000000
  -V(xc)+E(xc)   XCENC  =       -66.60829531
  PAW double counting   =       502.38237017     -424.69255633
  entropy T*S    EENTRO =         0.00002684
  eigenvalues    EBANDS =       -11.38922585
  atomic energy  EATOM  =       223.97520926
  ---------------------------------------------------
  free energy    TOTEN  =       -11.86844227 eV

  energy without entropy =      -11.86846911  energy(sigma->0) =      -11.86845122


--------------------------------------------------------------------------------------------------------


  average scaling for gradient   1.5262


 average (electrostatic) potential at core
  the test charge radii are     1.4837  1.0621
  (the norm of the test charge is              1.0000)
       1 -39.5498       2 -49.4985
 
 
 
 E-fermi :   3.0689     XC(G=0):  -8.7776     alpha+bet : -8.8632


 k-point     1 :       0.0000    0.0000    0.0000
  band No.  band energies     occupation 
      1      -8.1392      1.00000
      2      -8.1392      1.00000
      3       2.7591      1.00000
      4       2.7591      1.00000
      5       3.0274      1.00003
      6       3.0274      1.00001
      7       3.0274      1.00000
      8       3.0274      0.99997
      9       3.2545     -0.00000
     10       3.2545     -0.00000
     11       7.5507      0.00000
     12       7.5507      0.00000
     13       8.0690      0.00000
     14       8.0690      0.00000
     15       8.0690      0.00000
     16       8.0690      0.00000
     17      10.7101      0.00000
     18      10.7101      0.00000
     19      12.8597      0.00000
     20      12.8597      0.00000
     21      12.8597      0.00000
     22      12.8597      0.00000
     23      13.6178      0.00000
     24      13.6178      0.00000
     25      13.6542      0.00000
     26      13.6542      0.00000
     27      13.6542      0.00000
     28      13.6542      0.00000
     29      16.1582      0.00000
     30      16.1582      0.00000
     31      24.3980      0.00000
     32      24.3980      0.00000
     33      24.3980      0.00000
     34      24.3980      0.00000
     35      24.5634      0.00000
     36      24.5634      0.00000
     37      25.7830      0.00000
     38      25.7830      0.00000
     39      25.7830      0.00000
     40      25.7830      0.00000
     41      25.8827      0.00000
     42      25.8827      0.00000
     43      25.8827      0.00000
     44      25.8827      0.00000
     45      25.8827      0.00000
     46      25.8827      0.00000
     47      25.8889      0.00000
     48      25.8889      0.00000
     49      26.3628      0.00000
     50      26.3628      0.00000
     51      26.3628      0.00000
     52      26.3628      0.00000
     53      33.4071      0.00000
     54      33.4775      0.00000
     55      33.5383      0.00000
     56      33.8238      0.00000

 k-point     2 :       0.1667    0.0000    0.0000
  band No.  band energies     occupation 
      1      -7.8706      1.00000
      2      -7.8706      1.00000
      3       0.7492      1.00000
      4       0.7492      1.00000
      5       2.6158      1.00000
      6       2.6158      1.00000
      7       2.8009      1.00000
      8       2.8090      1.00000
      9       4.5848      0.00000
     10       4.5848      0.00000
     11       7.7422      0.00000
     12       7.7422      0.00000
     13       8.1467      0.00000
     14       8.1467      0.00000
     15       8.4119      0.00000
     16       8.4125      0.00000
     17      11.8041      0.00000
     18      11.8344      0.00000
     19      11.8344      0.00000
     20      11.8761      0.00000
     21      11.9011      0.00000
     22      11.9011      0.00000
     23      13.3455      0.00000
     24      13.3455      0.00000
     25      15.6540      0.00000
     26      15.6669      0.00000
     27      15.6669      0.00000
     28      15.7317      0.00000
     29      18.1086      0.00000
     30      18.1086      0.00000
     31      21.3635      0.00000
     32      21.3635      0.00000
     33      21.4972      0.00000
     34      21.5450      0.00000
     35      21.9225      0.00000
     36      21.9225      0.00000
     37      25.0066      0.00000
     38      25.0927      0.00000
     39      25.2490      0.00000
     40      25.2490      0.00000
     41      26.1059      0.00000
     42      26.1059      0.00000
     43      26.1138      0.00000
     44      26.1138      0.00000
     45      26.3079      0.00000
     46      26.3311      0.00000
     47      27.2324      0.00000
     48      27.2324      0.00000
     49      29.8027      0.00000
     50      29.8042      0.00000
     51      29.8743      0.00000
     52      29.9156      0.00000
     53      30.6625      0.00000
     54      30.6851      0.00000
     55      31.9872      0.00000
     56      32.1650      0.00000

 k-point     3 :       0.3333    0.0000    0.0000
  band No.  band energies     occupation 
      1      -7.1769      1.00000
      2      -7.1769      1.00000
      3      -1.4503      1.00000
      4      -1.4503      1.00000
      5       2.2347      1.00000
      6       2.2347      1.00000
      7       2.4354      1.00000
      8       2.4423      1.00000
      9       4.5309      0.00000
     10       4.5309      0.00000
     11       8.3160      0.00000
     12       8.3160      0.00000
     13       8.5564      0.00000
     14       8.5566      0.00000
     15       9.2351      0.00000
     16       9.2351      0.00000
     17      11.4181      0.00000
     18      11.4181      0.00000
     19      12.3388      0.00000
     20      12.3388      0.00000
     21      12.3896      0.00000
     22      12.4548      0.00000
     23      16.3051      0.00000
     24      16.3051      0.00000
     25      17.7254      0.00000
     26      17.7254      0.00000
     27      17.8071      0.00000
     28      17.9007      0.00000
     29      18.5293      0.00000
     30      18.5293      0.00000
     31      18.7867      0.00000
     32      18.7867      0.00000
     33      18.8007      0.00000
     34      18.8354      0.00000
     35      21.7945      0.00000
     36      21.7945      0.00000
     37      25.0167      0.00000
     38      25.2036      0.00000
     39      25.2401      0.00000
     40      25.2401      0.00000
     41      25.6072      0.00000
     42      25.6073      0.00000
     43      26.4206      0.00000
     44      26.4338      0.00000
     45      26.4339      0.00000
     46      26.5177      0.00000
     47      26.6522      0.00000
     48      26.6522      0.00000
     49      27.5534      0.00000
     50      27.5536      0.00000
     51      27.6612      0.00000
     52      27.6700      0.00000
     53      29.0765      0.00000
     54      29.0780      0.00000
     55      31.2438      0.00000
     56      31.4109      0.00000

 k-point     4 :       0.5000    0.0000    0.0000
  band No.  band energies     occupation 
      1      -6.6726      1.00000
      2      -6.6726      1.00000
      3      -2.4993      1.00000
      4      -2.4993      1.00000
      5       2.0734      1.00000
      6       2.0734      1.00000
      7       2.2828      1.00000
      8       2.2828      1.00000
      9       4.3628     -0.00000
     10       4.3628     -0.00000
     11       8.2379      0.00000
     12       8.2379      0.00000
     13       8.4259      0.00000
     14       8.4259      0.00000
     15       9.8948      0.00000
     16       9.8948      0.00000
     17      12.0606      0.00000
     18      12.0606      0.00000
     19      14.0731      0.00000
     20      14.0731      0.00000
     21      14.2666      0.00000
     22      14.2666      0.00000
     23      15.1742      0.00000
     24      15.1742      0.00000
     25      15.2577      0.00000
     26      15.2577      0.00000
     27      15.4389      0.00000
     28      15.4389      0.00000
     29      20.9479      0.00000
     30      20.9479      0.00000
     31      21.8470      0.00000
     32      21.8470      0.00000
     33      21.9810      0.00000
     34      21.9810      0.00000
     35      22.0081      0.00000
     36      22.0081      0.00000
     37      22.7217      0.00000
     38      22.7217      0.00000
     39      22.7413      0.00000
     40      22.7414      0.00000
     41      25.2944      0.00000
     42      25.2944      0.00000
     43      26.0431      0.00000
     44      26.0431      0.00000
     45      26.2548      0.00000
     46      26.2548      0.00000
     47      26.8143      0.00000
     48      26.8143      0.00000
     49      26.9626      0.00000
     50      26.9627      0.00000
     51      27.0087      0.00000
     52      27.0093      0.00000
     53      27.0876      0.00000
     54      27.0877      0.00000
     55      30.4510      0.00000
     56      30.5906      0.00000

 k-point     5 :      -0.3333    0.0000    0.0000
  band No.  band energies     occupation 
      1      -7.1769      1.00000
      2      -7.1769      1.00000
      3      -1.4503      1.00000
      4      -1.4503      1.00000
      5       2.2347      1.00000
      6       2.2347      1.00000
      7       2.4354      1.00000
      8       2.4423      1.00000
      9       4.5309      0.00000
     10       4.5309      0.00000
     11       8.3160      0.00000
     12       8.3160      0.00000
     13       8.5564      0.00000
     14       8.5566      0.00000
     15       9.2351      0.00000
     16       9.2351      0.00000
     17      11.4181      0.00000
     18      11.4181      0.00000
     19      12.3388      0.00000
     20      12.3388      0.00000
     21      12.3896      0.00000
     22      12.4548      0.00000
     23      16.3051      0.00000
     24      16.3051      0.00000
     25      17.7254      0.00000
     26      17.7254      0.00000
     27      17.8071      0.00000
     28      17.9007      0.00000
     29      18.5293      0.00000
     30      18.5293      0.00000
     31      18.7867      0.00000
     32      18.7867      0.00000
     33      18.8007      0.00000
     34      18.8354      0.00000
     35      21.7945      0.00000
     36      21.7945      0.00000
     37      25.0167      0.00000
     38      25.2036      0.00000
     39      25.2401      0.00000
     40      25.2401      0.00000
     41      25.6072      0.00000
     42      25.6072      0.00000
     43      26.4205      0.00000
     44      26.4338      0.00000
     45      26.4338      0.00000
     46      26.5177      0.00000
     47      26.6522      0.00000
     48      26.6522      0.00000
     49      27.5534      0.00000
     50      27.5535      0.00000
     51      27.6612      0.00000
     52      27.6700      0.00000
     53      29.0765      0.00000
     54      29.0798      0.00000
     55      31.2252      0.00000
     56      31.3344      0.00000

 k-point     6 :      -0.1667    0.0000    0.0000
  band No.  band energies     occupation 
      1      -7.8706      1.00000
      2      -7.8706      1.00000
      3       0.7492      1.00000
      4       0.7492      1.00000
      5       2.6158      1.00000
      6       2.6158      1.00000
      7       2.8009      1.00000
      8       2.8090      1.00000
      9       4.5848      0.00000
     10       4.5848      0.00000
     11       7.7422      0.00000
     12       7.7422      0.00000
     13       8.1467      0.00000
     14       8.1467      0.00000
     15       8.4119      0.00000
     16       8.4125      0.00000
     17      11.8041      0.00000
     18      11.8344      0.00000
     19      11.8344      0.00000
     20      11.8761      0.00000
     21      11.9011      0.00000
     22      11.9011      0.00000
     23      13.3455      0.00000
     24      13.3455      0.00000
     25      15.6540      0.00000
     26      15.6669      0.00000
     27      15.6669      0.00000
     28      15.7317      0.00000
     29      18.1086      0.00000
     30      18.1086      0.00000
     31      21.3635      0.00000
     32      21.3635      0.00000
     33      21.4972      0.00000
     34      21.5450      0.00000
     35      21.9225      0.00000
     36      21.9225      0.00000
     37      25.0066      0.00000
     38      25.0927      0.00000
     39      25.2490      0.00000
     40      25.2490      0.00000
     41      26.1059      0.00000
     42      26.1059      0.00000
     43      26.1138      0.00000
     44      26.1138      0.00000
     45      26.3079      0.00000
     46      26.3311      0.00000
     47      27.2324      0.00000
     48      27.2324      0.00000
     49      29.8036      0.00000
     50      29.8089      0.00000
     51      29.8728      0.00000
     52      29.9172      0.00000
     53      30.6615      0.00000
     54      30.6723      0.00000
     55      32.0307      0.00000
     56      32.1254      0.00000

 k-point     7 :       0.1667    0.1667    0.0000
  band No.  band energies     occupation 
      1      -7.7788      1.00000
      2      -7.7788      1.00000
      3       0.6756      1.00000
      4       0.6756      1.00000
      5       2.2489      1.00000
      6       2.2489      1.00000
      7       2.3531      1.00000
      8       2.3531      1.00000
      9       5.2932      0.00000
     10       5.2932      0.00000
     11       6.6768      0.00000
     12       6.6768      0.00000
     13       8.7869      0.00000
     14       8.7869      0.00000
     15       9.0455      0.00000
     16       9.0455      0.00000
     17      10.3595      0.00000
     18      10.3595      0.00000
     19      12.8591      0.00000
     20      12.8591      0.00000
     21      13.1662      0.00000
     22      13.1662      0.00000
     23      14.4644      0.00000
     24      14.4644      0.00000
     25      14.5074      0.00000
     26      14.5074      0.00000
     27      15.1611      0.00000
     28      15.1611      0.00000
     29      19.2108      0.00000
     30      19.2108      0.00000
     31      21.1231      0.00000
     32      21.1231      0.00000
     33      21.3199      0.00000
     34      21.3199      0.00000
     35      21.8760      0.00000
     36      21.8760      0.00000
     37      22.6767      0.00000
     38      22.6767      0.00000
     39      25.1768      0.00000
     40      25.1769      0.00000
     41      25.8299      0.00000
     42      25.8299      0.00000
     43      26.0103      0.00000
     44      26.0104      0.00000
     45      27.1307      0.00000
     46      27.1308      0.00000
     47      29.3836      0.00000
     48      29.3973      0.00000
     49      29.4758      0.00000
     50      29.4962      0.00000
     51      30.2379      0.00000
     52      30.2708      0.00000
     53      30.3088      0.00000
     54      30.3464      0.00000
     55      31.2476      0.00000
     56      31.9109      0.00000

 k-point     8 :       0.3333    0.1667    0.0000
  band No.  band energies     occupation 
      1      -7.2130      1.00000
      2      -7.2088      1.00000
      3      -0.9739      1.00000
      4      -0.9736      1.00000
      5       1.6458      1.00000
      6       1.6774      1.00000
      7       1.9072      1.00000
      8       1.9087      1.00000
      9       5.6011      0.00000
     10       5.6361      0.00000
     11       6.9659      0.00000
     12       7.0205      0.00000
     13       8.8461      0.00000
     14       8.8840      0.00000
     15       9.4611      0.00000
     16       9.4722      0.00000
     17      11.1949      0.00000
     18      11.2099      0.00000
     19      13.3243      0.00000
     20      13.3572      0.00000
     21      13.3854      0.00000
     22      13.4221      0.00000
     23      15.7228      0.00000
     24      15.7527      0.00000
     25      16.7302      0.00000
     26      16.7752      0.00000
     27      17.7745      0.00000
     28      17.7804      0.00000
     29      17.9797      0.00000
     30      18.0263      0.00000
     31      18.1363      0.00000
     32      18.1385      0.00000
     33      21.4676      0.00000
     34      21.5963      0.00000
     35      22.0064      0.00000
     36      22.0534      0.00000
     37      22.3976      0.00000
     38      22.4046      0.00000
     39      23.1371      0.00000
     40      23.1594      0.00000
     41      25.5971      0.00000
     42      25.6421      0.00000
     43      25.9759      0.00000
     44      25.9870      0.00000
     45      26.6637      0.00000
     46      26.6645      0.00000
     47      28.1123      0.00000
     48      28.1811      0.00000
     49      28.6051      0.00000
     50      28.6186      0.00000
     51      29.4786      0.00000
     52      29.4914      0.00000
     53      29.8681      0.00000
     54      30.0546      0.00000
     55      30.2175      0.00000
     56      30.5143      0.00000

 k-point     9 :       0.5000    0.1667    0.0000
  band No.  band energies     occupation 
      1      -6.5580      1.00000
      2      -6.5451      1.00000
      3      -2.3379      1.00000
      4      -2.3210      1.00000
      5       1.0398      1.00000
      6       1.0658      1.00000
      7       1.8317      1.00000
      8       1.8357      1.00000
      9       5.5007      0.00000
     10       5.5187      0.00000
     11       7.6150      0.00000
     12       7.6569      0.00000
     13       9.1551      0.00000
     14       9.1691      0.00000
     15       9.7056      0.00000
     16       9.7907      0.00000
     17      12.1084      0.00000
     18      12.2255      0.00000
     19      13.5926      0.00000
     20      13.6352      0.00000
     21      14.2392      0.00000
     22      14.2722      0.00000
     23      15.2526      0.00000
     24      15.3217      0.00000
     25      15.5535      0.00000
     26      15.5841      0.00000
     27      18.4146      0.00000
     28      18.5560      0.00000
     29      19.8562      0.00000
     30      19.9129      0.00000
     31      20.0330      0.00000
     32      20.0767      0.00000
     33      21.0470      0.00000
     34      21.0513      0.00000
     35      22.0199      0.00000
     36      22.0463      0.00000
     37      22.5084      0.00000
     38      22.5683      0.00000
     39      23.4129      0.00000
     40      23.4154      0.00000
     41      24.2269      0.00000
     42      24.3656      0.00000
     43      25.2040      0.00000
     44      25.2382      0.00000
     45      25.8528      0.00000
     46      25.8572      0.00000
     47      26.3534      0.00000
     48      26.4188      0.00000
     49      26.9266      0.00000
     50      27.0456      0.00000
     51      28.1654      0.00000
     52      28.2458      0.00000
     53      28.4981      0.00000
     54      28.5966      0.00000
     55      29.3005      0.00000
     56      29.9834      0.00000

 k-point    10 :      -0.3333    0.1667    0.0000
  band No.  band energies     occupation 
      1      -6.7432      1.00000
      2      -6.7318      1.00000
      3      -1.9941      1.00000
      4      -1.9778      1.00000
      5       0.9016      1.00000
      6       0.9214      1.00000
      7       2.1450      1.00000
      8       2.1526      1.00000
      9       5.5813      0.00000
     10       5.6119      0.00000
     11       7.8986      0.00000
     12       7.9304      0.00000
     13       8.8638      0.00000
     14       8.8747      0.00000
     15       9.4050      0.00000
     16       9.4727      0.00000
     17      11.9198      0.00000
     18      11.9449      0.00000
     19      12.7481      0.00000
     20      12.8608      0.00000
     21      13.9079      0.00000
     22      14.0055      0.00000
     23      15.2520      0.00000
     24      15.3605      0.00000
     25      17.1444      0.00000
     26      17.1758      0.00000
     27      18.2434      0.00000
     28      18.2686      0.00000
     29      18.4486      0.00000
     30      18.5141      0.00000
     31      19.7850      0.00000
     32      19.8075      0.00000
     33      21.3005      0.00000
     34      21.3538      0.00000
     35      22.5447      0.00000
     36      22.5752      0.00000
     37      22.7739      0.00000
     38      22.9470      0.00000
     39      23.8340      0.00000
     40      23.9569      0.00000
     41      24.2002      0.00000
     42      24.2381      0.00000
     43      24.4935      0.00000
     44      24.5206      0.00000
     45      26.1918      0.00000
[...]
  0.000   0.000   0.000   0.000   4.510  -0.000  -0.000   0.000  -0.000   0.102   7.603  -0.000  -0.000   0.000  -0.000   0.177
  0.000   0.000   0.000   0.000  -0.000  -0.000   4.510  -0.000  -0.000  -0.000  -0.000  -0.000   7.603  -0.000  -0.000  -0.000
  0.000   0.000   0.000   0.000  -0.000  -0.102  -0.000   0.000   4.510  -0.000  -0.000  -0.177  -0.000   0.000   7.603  -0.000
  0.000   0.000   0.000   0.000   7.603  -0.000  -0.000   0.000  -0.000   0.177  12.942  -0.000  -0.000   0.000  -0.000   0.309
  0.000   0.000   0.000   0.000  -0.000  -0.000   7.603  -0.000  -0.000  -0.000  -0.000  -0.000  12.942  -0.000  -0.000  -0.000
  0.000   0.000   0.000   0.000  -0.000  -0.177  -0.000   0.000   7.603  -0.000  -0.000  -0.309  -0.000   0.000  12.942  -0.000
 -0.000   0.000  -0.000   0.000   0.000   0.000   0.004   0.000   0.000   0.000   0.000   0.000   0.005   0.000   0.000   0.000
 -0.000   0.000  -0.000   0.000  -0.000   0.000   0.000   0.000   0.004   0.000  -0.000   0.000   0.000   0.000   0.005   0.000
 -0.000   0.000  -0.000   0.000  -0.000   0.000   0.000   0.000  -0.000   0.000  -0.000   0.000   0.000   0.000  -0.000   0.000
 -0.000   0.000  -0.000   0.000   0.004   0.000   0.000   0.000   0.000   0.000   0.005   0.000   0.000   0.000   0.000   0.000
 -0.000   0.000  -0.000   0.000  -0.000   0.000   0.000   0.000   0.000   0.000  -0.000   0.000   0.000   0.000   0.000   0.000
 pseudopotential strength for first ion, spin component:           2
 -0.000   0.000  -0.000   0.000   0.000   0.000   0.000   0.000   0.000   0.000   0.000   0.000   0.000   0.000   0.000   0.000
 -0.000   0.000  -0.000   0.000   0.000   0.000   0.000   0.000   0.000   0.000   0.000   0.000   0.000   0.000   0.000   0.000
  0.000   0.000   0.000   0.000  -0.000   0.000  -0.000  -0.102   0.000   0.000  -0.000   0.000  -0.000  -0.177   0.000   0.000
  0.000   0.000   0.000   0.000  -0.000   0.102  -0.000   0.000  -0.102   0.000  -0.000   0.177  -0.000   0.000  -0.177   0.000
  0.000   0.000   0.000   0.000   0.000   0.000   0.102   0.000  -0.000   0.000   0.000   0.000   0.177   0.000  -0.000   0.000
  0.000   0.000   0.000   0.000  -0.000   0.000  -0.000  -0.177   0.000   0.000  -0.000   0.000  -0.000  -0.309   0.000   0.000
  0.000   0.000   0.000   0.000  -0.000   0.177  -0.000   0.000  -0.177   0.000  -0.000   0.309  -0.000   0.000  -0.309   0.000
  0.000   0.000   0.000   0.000   0.000   0.000   0.177   0.000  -0.000   0.000   0.000   0.000   0.309   0.000  -0.000   0.000
  0.000   0.000   0.000   0.000   0.000  -0.000   0.000   0.000  -0.000   0.000   0.000  -0.000   0.000   0.000  -0.000   0.000
 -0.000   0.000  -0.000   0.000   0.000   0.000   0.000  -0.000   0.000   0.000   0.000   0.000   0.000  -0.000   0.000   0.000
  0.000   0.000   0.000   0.000  -0.000  -0.000  -0.000   0.000  -0.000  -0.000  -0.000  -0.000  -0.000   0.000  -0.000  -0.000
 -0.000   0.000  -0.000   0.000   0.000   0.000  -0.000   0.000   0.000   0.000   0.000   0.000  -0.000   0.000   0.000   0.000
  0.000  -0.000   0.000  -0.000  -0.000   0.000   0.000  -0.000  -0.000   0.000  -0.000   0.000   0.000  -0.000  -0.000   0.000
 pseudopotential strength for first ion, spin component:           3
 -0.000  -0.000  -0.000  -0.000   0.000  -0.000   0.000  -0.000   0.000  -0.000   0.000  -0.000   0.000  -0.000   0.000  -0.000
 -0.000  -0.000  -0.000  -0.000   0.000  -0.000   0.000  -0.000   0.000  -0.000   0.000  -0.000   0.000  -0.000   0.000  -0.000
  0.000  -0.000   0.000  -0.000  -0.000  -0.000  -0.000  -0.102   0.000  -0.000  -0.000  -0.000  -0.000  -0.177   0.000  -0.000
  0.000  -0.000   0.000  -0.000  -0.000   0.102  -0.000  -0.000   0.102  -0.000  -0.000   0.177  -0.000  -0.000   0.177  -0.000
  0.000  -0.000   0.000  -0.000   0.000  -0.000  -0.102  -0.000  -0.000  -0.000   0.000  -0.000  -0.177  -0.000  -0.000  -0.000
  0.000  -0.000   0.000  -0.000  -0.000  -0.000  -0.000  -0.177   0.000  -0.000  -0.000  -0.000  -0.000  -0.309   0.000  -0.000
  0.000  -0.000   0.000  -0.000  -0.000   0.177  -0.000  -0.000   0.177  -0.000  -0.000   0.309  -0.000  -0.000   0.309  -0.000
  0.000  -0.000   0.000  -0.000   0.000  -0.000  -0.177  -0.000  -0.000  -0.000   0.000  -0.000  -0.309  -0.000  -0.000  -0.000
  0.000  -0.000   0.000  -0.000   0.000   0.000   0.000  -0.000  -0.000  -0.000   0.000   0.000   0.000  -0.000  -0.000  -0.000
 -0.000  -0.000  -0.000  -0.000   0.000  -0.000   0.000   0.000   0.000  -0.000   0.000  -0.000   0.000   0.000   0.000  -0.000
  0.000  -0.000   0.000  -0.000  -0.000   0.000  -0.000  -0.000  -0.000   0.000  -0.000   0.000  -0.000  -0.000  -0.000   0.000
 -0.000  -0.000  -0.000  -0.000   0.000  -0.000  -0.000  -0.000   0.000  -0.000   0.000  -0.000  -0.000  -0.000   0.000  -0.000
  0.000   0.000   0.000   0.000  -0.000  -0.000   0.000   0.000  -0.000  -0.000  -0.000  -0.000   0.000   0.000  -0.000  -0.000
 pseudopotential strength for first ion, spin component:           4
 21.594   0.000  25.835   0.000   0.000   0.000   0.000   0.000   0.000   0.000   0.000   0.000   0.000   0.000   0.000   0.000
 25.835   0.000  30.923   0.000   0.000   0.000   0.000   0.000   0.000   0.000   0.000   0.000   0.000   0.000   0.000   0.000
  0.000   0.000   0.000   0.000   4.510  -0.000  -0.000   0.000  -0.000  -0.102   7.603  -0.000  -0.000   0.000  -0.000  -0.177
  0.000   0.000   0.000   0.000  -0.000  -0.000   4.510  -0.000  -0.000  -0.000  -0.000  -0.000   7.603  -0.000  -0.000  -0.000
  0.000   0.000   0.000   0.000  -0.000   0.102  -0.000   0.000   4.510  -0.000  -0.000   0.177  -0.000   0.000   7.603  -0.000
  0.000   0.000   0.000   0.000   7.603  -0.000  -0.000   0.000  -0.000  -0.177  12.942  -0.000  -0.000   0.000  -0.000  -0.309
  0.000   0.000   0.000   0.000  -0.000  -0.000   7.603  -0.000  -0.000  -0.000  -0.000  -0.000  12.942  -0.000  -0.000  -0.000
  0.000   0.000   0.000   0.000  -0.000   0.177  -0.000   0.000   7.603  -0.000  -0.000   0.309  -0.000   0.000  12.942  -0.000
 -0.000   0.000  -0.000   0.000   0.000   0.000   0.004   0.000   0.000   0.000   0.000   0.000   0.005   0.000   0.000   0.000
 -0.000   0.000  -0.000   0.000   0.000   0.000   0.000   0.000   0.004   0.000   0.000   0.000   0.000   0.000   0.005   0.000
  0.000   0.000   0.000   0.000  -0.000   0.000   0.000   0.000  -0.000   0.000  -0.000   0.000   0.000   0.000  -0.000   0.000
 -0.000   0.000  -0.000   0.000   0.004   0.000   0.000   0.000  -0.000   0.000   0.005   0.000   0.000   0.000  -0.000   0.000
  0.000   0.000   0.000   0.000  -0.000   0.000  -0.000   0.000   0.000   0.000  -0.000   0.000  -0.000   0.000   0.000   0.000
 total augmentation occupancy for first ion, spin component:           1
  6.418  -3.202   0.000   0.000  -0.000   0.000  -0.000   0.000  -0.000   0.000  -0.000  -0.000   0.000
 -3.202   1.828  -0.000   0.000   0.000  -0.000   0.000   0.000  -0.000   0.000   0.000   0.000   0.000
  0.000  -0.000   1.585   0.000   0.000  -0.306  -0.000   0.000   0.000   0.000   0.000   0.322  -0.000
  0.000  -0.000  -0.000   1.585  -0.000  -0.000  -0.306   0.000   0.322  -0.000   0.000   0.000   0.000
 -0.000   0.000   0.000   0.000   1.585   0.000   0.000  -0.306  -0.000   0.322   0.000   0.000   0.000
 -0.000   0.000  -0.306   0.000  -0.000   0.076  -0.000  -0.000   0.000   0.000  -0.000  -0.057   0.000
  0.000   0.000   0.000  -0.306   0.000  -0.000   0.076   0.000  -0.057   0.000   0.000  -0.000  -0.000
  0.000   0.000   0.000  -0.000  -0.306  -0.000  -0.000   0.076   0.000  -0.057   0.000  -0.000   0.000
 -0.000   0.000   0.000   0.322   0.000   0.000  -0.057   0.000   0.115   0.000   0.000   0.000  -0.000
  0.000   0.000   0.000   0.000   0.322  -0.000   0.000  -0.057   0.000   0.115   0.000  -0.000   0.000
 -0.000   0.000   0.000   0.000   0.000   0.000  -0.000   0.000   0.000   0.000   0.033   0.000   0.000
  0.000   0.000   0.322  -0.000  -0.000  -0.057   0.000   0.000  -0.000   0.000  -0.000   0.115   0.000
  0.000   0.000   0.000   0.000   0.000   0.000   0.000  -0.000  -0.000  -0.000   0.000  -0.000   0.033
 total augmentation occupancy for first ion, spin component:           2
  0.000   0.000  -0.000  -0.000   0.000   0.000   0.000   0.000   0.000   0.000  -0.000   0.000  -0.000
 -0.000   0.000  -0.000   0.000   0.000  -0.000   0.000   0.000   0.000   0.000  -0.000  -0.000   0.000
  0.000   0.000   0.000  -0.000   0.000  -0.000  -0.000   0.000  -0.000  -0.000   0.000   0.000  -0.000
  0.000   0.000   0.000  -0.000  -0.000   0.000   0.000  -0.000  -0.000   0.000   0.000   0.000   0.000
  0.000   0.000  -0.000   0.000   0.000  -0.000  -0.000  -0.000   0.000   0.000  -0.000   0.000  -0.000
 -0.000   0.000   0.000   0.000  -0.000  -0.000  -0.000   0.000   0.000   0.000   0.000   0.000   0.000
 -0.000   0.000  -0.000  -0.000  -0.000   0.000  -0.000   0.000  -0.000   0.000   0.000  -0.000   0.000
  0.000   0.000  -0.000  -0.000   0.000   0.000   0.000   0.000   0.000   0.000   0.000  -0.000   0.000
  0.000   0.000  -0.000   0.000  -0.000   0.000  -0.000  -0.000   0.000  -0.000   0.000  -0.000  -0.000
  0.000   0.000  -0.000   0.000   0.000   0.000  -0.000   0.000  -0.000  -0.000  -0.000  -0.000  -0.000
  0.000   0.000   0.000   0.000  -0.000  -0.000   0.000   0.000   0.000  -0.000   0.000   0.000  -0.000
 -0.000   0.000  -0.000   0.000  -0.000   0.000  -0.000   0.000   0.000  -0.000   0.000   0.000  -0.000
 -0.000  -0.000   0.000  -0.000  -0.000  -0.000  -0.000   0.000   0.000  -0.000  -0.000  -0.000  -0.000
 total augmentation occupancy for first ion, spin component:           3
  0.000  -0.000   0.000   0.000   0.000   0.000   0.000  -0.000  -0.000   0.000   0.000   0.000  -0.000
  0.000   0.000   0.000   0.000  -0.000   0.000   0.000  -0.000   0.000  -0.000   0.000   0.000  -0.000
  0.000   0.000   0.000  -0.000   0.000  -0.000  -0.000   0.000   0.000   0.000   0.000   0.000  -0.000
  0.000  -0.000  -0.000   0.000  -0.000   0.000   0.000  -0.000  -0.000  -0.000   0.000  -0.000  -0.000
  0.000  -0.000  -0.000   0.000   0.000   0.000   0.000   0.000   0.000  -0.000   0.000   0.000  -0.000
  0.000   0.000   0.000   0.000   0.000   0.000   0.000   0.000  -0.000   0.000  -0.000   0.000   0.000
  0.000  -0.000  -0.000  -0.000   0.000   0.000  -0.000  -0.000   0.000   0.000  -0.000  -0.000  -0.000
 -0.000   0.000   0.000  -0.000   0.000   0.000   0.000  -0.000  -0.000   0.000   0.000   0.000   0.000
 -0.000  -0.000   0.000   0.000   0.000   0.000   0.000  -0.000   0.000   0.000   0.000  -0.000  -0.000
  0.000  -0.000  -0.000  -0.000  -0.000   0.000   0.000   0.000  -0.000   0.000   0.000   0.000  -0.000
 -0.000   0.000   0.000  -0.000   0.000  -0.000   0.000   0.000  -0.000   0.000  -0.000   0.000   0.000
  0.000   0.000   0.000   0.000   0.000   0.000  -0.000   0.000  -0.000   0.000   0.000   0.000  -0.000
 -0.000  -0.000  -0.000  -0.000  -0.000   0.000  -0.000   0.000  -0.000  -0.000  -0.000  -0.000  -0.000
 total augmentation occupancy for first ion, spin component:           4
  0.000   0.000   0.000   0.000  -0.000   0.000   0.000   0.000   0.000   0.000   0.000   0.000  -0.000
 -0.000   0.000   0.000   0.000  -0.000   0.000   0.000   0.000   0.000  -0.000  -0.000   0.000   0.000
  0.000  -0.000  -0.000   0.000   0.000   0.000   0.000   0.000   0.000   0.000  -0.000   0.000   0.000
  0.000   0.000   0.000   0.000  -0.000   0.000  -0.000   0.000   0.000  -0.000   0.000  -0.000   0.000
  0.000   0.000  -0.000   0.000   0.000  -0.000   0.000  -0.000  -0.000   0.000   0.000  -0.000   0.000
  0.000   0.000   0.000   0.000  -0.000  -0.000   0.000   0.000  -0.000  -0.000  -0.000   0.000   0.000
  0.000   0.000   0.000   0.000  -0.000   0.000  -0.000  -0.000  -0.000   0.000   0.000  -0.000  -0.000
 -0.000  -0.000   0.000  -0.000   0.000  -0.000   0.000  -0.000  -0.000   0.000   0.000   0.000  -0.000
  0.000   0.000  -0.000  -0.000   0.000  -0.000  -0.000  -0.000   0.000   0.000   0.000   0.000   0.000
 -0.000   0.000   0.000   0.000   0.000  -0.000   0.000   0.000   0.000   0.000   0.000   0.000   0.000
  0.000   0.000   0.000   0.000   0.000  -0.000   0.000   0.000   0.000   0.000  -0.000  -0.000  -0.000
 -0.000  -0.000  -0.000  -0.000  -0.000   0.000  -0.000   0.000   0.000  -0.000   0.000   0.000   0.000
 -0.000  -0.000  -0.000   0.000   0.000   0.000  -0.000  -0.000   0.000   0.000  -0.000   0.000  -0.000


------------------------ aborting loop because EDIFF is reached ----------------------------------------


    FORLOC:  cpu time    0.0008: real time    0.0008
    FORNL :  cpu time    0.0162: real time    0.0162
    STRESS:  cpu time    0.1321: real time    0.1325
    FORCOR:  cpu time    0.0063: real time    0.0064
    OFIELD:  cpu time    0.0001: real time    0.0001

  FORCE on cell =-STRESS in cart. coord.  units (eV):
  Direction    XX          YY          ZZ          XY          YZ          ZX
  --------------------------------------------------------------------------------------
  Alpha Z     6.67625     6.67625     6.67625
  Ewald     -71.28251   -71.28251   -71.28251     0.00000     0.00000     0.00000
  Hartree     9.45322     9.45322     9.45322    -0.00000    -0.00000    -0.00000
  E(xc)     -31.71882   -31.71882   -31.71882    -0.00000    -0.00000    -0.00000
  Local     -35.19186   -35.19186   -35.19186     0.00003     0.00003     0.00003
  n-local    69.43299    70.03336    66.29960     1.62760    -0.57640     0.25957
  augment    -8.21718    -8.21718    -8.21718    -0.00007    -0.00007    -0.00007
  Kinetic    65.85026    65.46575    60.67089     3.76815    -1.00619     0.60835
  Fock        0.00000     0.00000     0.00000     0.00000     0.00000     0.00000
  -------------------------------------------------------------------------------------
  Total       2.30340     2.30340     2.30340    -0.00000    -0.00000    -0.00000
  in kB      66.38427    66.38427    66.38427    -0.00000    -0.00000    -0.00000
  external pressure =       66.38 kB  Pullay stress =        0.00 kB


 VOLUME and BASIS-vectors are now :
 -----------------------------------------------------------------------------
  energy-cutoff  :      300.00
  volume of cell :       55.59
      direct lattice vectors                 reciprocal lattice vectors
     0.000000000  3.029200000  3.029200000    -0.165060082  0.165060082  0.165060082
     3.029200000  0.000000000  3.029200000     0.165060082 -0.165060082  0.165060082
     3.029200000  3.029200000  0.000000000     0.165060082  0.165060082 -0.165060082

  length of vectors
     4.283935723  4.283935723  4.283935723     0.285892448  0.285892448  0.285892448


 FORCES acting on ions:
    Electron-Ion                     Ewald-Force                    Non-Local-Force
 -----------------------------------------------------------------------------------------------
   0.137E-05 0.137E-05 0.137E-05   0.444E-14 0.367E-14 0.481E-14   -.555E-16 -.694E-16 -.694E-16
   0.784E-06 0.784E-06 0.784E-06   -.445E-14 -.376E-14 -.512E-14   0.833E-16 0.971E-16 0.114E-15
 -----------------------------------------------------------------------------------------------
   0.183E-05 0.183E-05 0.183E-05   -.623E-17 -.883E-16 -.308E-15   0.278E-16 0.278E-16 0.451E-16
 
 
 POSITION                                       TOTAL-FORCE (eV/Angst)
 -----------------------------------------------------------------------------------
      0.00000      0.00000      0.00000         0.000000      0.000000      0.000000
      1.51460      1.51460      1.51460        -0.000000     -0.000000     -0.000000
 -----------------------------------------------------------------------------------
    total drift:                                0.000002      0.000002      0.000002


--------------------------------------------------------------------------------------------------------



  FREE ENERGIE OF THE ION-ELECTRON SYSTEM (eV)
  ---------------------------------------------------
  free  energy   TOTEN  =       -11.86844227 eV

  energy  without entropy=      -11.86846911  energy(sigma->0) =      -11.86845122
 


--------------------------------------------------------------------------------------------------------


    POTLOK:  cpu time    0.0162: real time    0.0162


--------------------------------------------------------------------------------------------------------


 writing wavefunctions
     LOOP+:  cpu time   16.6622: real time   17.0423
    4ORBIT:  cpu time    0.0000: real time    0.0000

 Spin-Orbit-Coupling matrix elements

 Ion:    1  E_soc:     -0.0304038
 l=   1
     0.0000000    -0.0048496    -0.0048496
    -0.0048496     0.0000000    -0.0048496
    -0.0048496    -0.0048496     0.0000000
 l=   2
     0.0000000    -0.0000828     0.0000000    -0.0000828    -0.0001349
    -0.0000828     0.0000000    -0.0001012    -0.0000828    -0.0000337
     0.0000000    -0.0001012     0.0000000    -0.0001012     0.0000000
    -0.0000828    -0.0000828    -0.0001012     0.0000000    -0.0000337
    -0.0001349    -0.0000337     0.0000000    -0.0000337     0.0000000
 l=   3
     0.0000000     0.0000000     0.0000000     0.0000000     0.0000000     0.0000000     0.0000000
     0.0000000     0.0000000     0.0000000     0.0000000     0.0000000     0.0000000     0.0000000
     0.0000000     0.0000000     0.0000000     0.0000000     0.0000000     0.0000000     0.0000000
     0.0000000     0.0000000     0.0000000     0.0000000     0.0000000     0.0000000     0.0000000
     0.0000000     0.0000000     0.0000000     0.0000000     0.0000000     0.0000000     0.0000000
     0.0000000     0.0000000     0.0000000     0.0000000     0.0000000     0.0000000     0.0000000
     0.0000000     0.0000000     0.0000000     0.0000000     0.0000000     0.0000000     0.0000000

 Ion:    2  E_soc:     -0.0242635
 l=   1
     0.0000000    -0.0040456    -0.0040456
    -0.0040456     0.0000000    -0.0040456
    -0.0040456    -0.0040456     0.0000000
 l=   2
     0.0000000     0.0000008     0.0000000     0.0000008     0.0000009
     0.0000008     0.0000000     0.0000007     0.0000008     0.0000002
     0.0000000     0.0000007     0.0000000     0.0000007     0.0000000
     0.0000008     0.0000008     0.0000007     0.0000000     0.0000002
     0.0000009     0.0000002     0.0000000     0.0000002     0.0000000
 l=   3
     0.0000000     0.0000000     0.0000000     0.0000000     0.0000000     0.0000000     0.0000000
     0.0000000     0.0000000     0.0000000     0.0000000     0.0000000     0.0000000     0.0000000
     0.0000000     0.0000000     0.0000000     0.0000000     0.0000000     0.0000000     0.0000000
     0.0000000     0.0000000     0.0000000     0.0000000     0.0000000     0.0000000     0.0000000
     0.0000000     0.0000000     0.0000000     0.0000000     0.0000000     0.0000000     0.0000000
     0.0000000     0.0000000     0.0000000     0.0000000     0.0000000     0.0000000     0.0000000
     0.0000000     0.0000000     0.0000000     0.0000000     0.0000000     0.0000000     0.0000000

 total amount of memory used by VASP MPI-rank0    35891. kBytes
=======================================================================

   base      :      30000. kBytes
   nonl-proj :       3096. kBytes
   fftplans  :        138. kBytes
   grid      :       1057. kBytes
   one-center:         64. kBytes
   wavefun   :       1536. kBytes
 
  
  
 General timing and accounting informations for this job:
 ========================================================
  
                  Total CPU time used (sec):       18.577
                            User time (sec):       18.027
                          System time (sec):        0.551
                         Elapsed time (sec):       19.174
  
                   Maximum memory used (kb):       59536.
                   Average memory used (kb):           0.
  
                          Minor page faults:        32920
                          Major page faults:            0
                 Voluntary context switches:         1323
