 vasp.5.4.4.18Apr17-6-g9f103f2a35 (build Sep 10 2021 22:26:18) complex          
  
 executed on             LinuxIFC date 2022.02.17  16:05:28
 running on   54 total cores
 distrk:  each k-point on    9 cores,    6 groups
 distr:  one band on NCORES_PER_BAND=   3 cores,    3 groups


--------------------------------------------------------------------------------------------------------


 INCAR:
 POTCAR:    PAW_PBE In 08Apr2002                  
 POTCAR:    PAW_PBE As 22Sep2009                  

 ----------------------------------------------------------------------------- 
|                                                                             |
|           W    W    AA    RRRRR   N    N  II  N    N   GGGG   !!!           |
|           W    W   A  A   R    R  NN   N  II  NN   N  G    G  !!!           |
|           W    W  A    A  R    R  N N  N  II  N N  N  G       !!!           |
|           W WW W  AAAAAA  RRRRR   N  N N  II  N  N N  G  GGG   !            |
|           WW  WW  A    A  R   R   N   NN  II  N   NN  G    G                |
|           W    W  A    A  R    R  N    N  II  N    N   GGGG   !!!           |
|                                                                             |
|      For optimal performance we recommend to set                            |
|        NCORE= 4 - approx SQRT( number of cores)                             |
|      NCORE specifies how many cores store one orbital (NPAR=cpu/NCORE).     |
|      This setting can  greatly improve the performance of VASP for DFT.     |
|      The default,   NCORE=1            might be grossly inefficient         |
|      on modern multi-core architectures or massively parallel machines.     |
|      Do your own testing !!!!                                               |
|      Unfortunately you need to use the default for GW and RPA calculations. |
|      (for HF NCORE is supported but not extensively tested yet)             |
|                                                                             |
 ----------------------------------------------------------------------------- 


 ----------------------------------------------------------------------------- 
|                                                                             |
|           W    W    AA    RRRRR   N    N  II  N    N   GGGG   !!!           |
|           W    W   A  A   R    R  NN   N  II  NN   N  G    G  !!!           |
|           W    W  A    A  R    R  N N  N  II  N N  N  G       !!!           |
|           W WW W  AAAAAA  RRRRR   N  N N  II  N  N N  G  GGG   !            |
|           WW  WW  A    A  R   R   N   NN  II  N   NN  G    G                |
|           W    W  A    A  R    R  N    N  II  N    N   GGGG   !!!           |
|                                                                             |
|      You have enabled k-point parallelism (KPAR>1).                         |
|      This developmental code was originally  written by Paul Kent at ORNL,  |
|      and carefully double checked in Vienna.                                |
|      GW as well as linear response parallelism added by Martijn Marsman     |
|      and Georg Kresse.                                                      |
|      Carefully verify results versus KPAR=1.                                |
|      Report problems to Paul Kent and Vienna.                               |
|                                                                             |
 ----------------------------------------------------------------------------- 

 POTCAR:    PAW_PBE In 08Apr2002                  
   VRHFIN =In: s2p1                                                             
   LEXCH  = PE                                                                  
   EATOM  =    53.7908 eV,    3.9535 Ry                                         
                                                                                
   TITEL  = PAW_PBE In 08Apr2002                                                
   LULTRA =        F    use ultrasoft PP ?                                      
   IUNSCR =        1    unscreen: 0-lin 1-nonlin 2-no                           
   RPACOR =    2.400    partial core radius                                     
   POMASS =  114.820; ZVAL   =    3.000    mass and valenz                      
   RCORE  =    3.100    outmost cutoff radius                                   
   RWIGS  =    3.170; RWIGS  =    1.677    wigner-seitz radius (au A)           
   ENMAX  =   95.934; ENMIN  =   71.951 eV                                      
   ICORE  =        3    local potential                                         
   LCOR   =        T    correct aug charges                                     
   LPAW   =        T    paw PP                                                  
   EAUG   =  237.125                                                            
   DEXC   =    0.000                                                            
   RMAX   =    3.168    core radius for proj-oper                               
   RAUG   =    1.300    factor for augmentation sphere                          
   RDEP   =    3.187    radius for radial grids                                 
   RDEPT  =    2.711    core radius for aug-charge                              
                                                                                
   Atomic configuration                                                         
   13 entries                                                                   
     n  l   j            E        occ.                                          
     1  0  0.50    -27747.9169   2.0000                                         
     2  0  0.50     -4154.4438   2.0000                                         
     2  1  1.50     -3728.4305   6.0000                                         
     3  0  0.50      -788.3680   2.0000                                         
     3  1  1.50      -648.9215   6.0000                                         
     3  2  2.50      -432.5893  10.0000                                         
     4  0  0.50      -119.6363   2.0000                                         
     4  1  1.50       -78.1086   6.0000                                         
     4  2  2.50       -18.6227  10.0000                                         
     5  0  0.50        -8.2107   2.0000                                         
     5  1  0.50        -2.5185   1.0000                                         
     5  2  2.50        -1.3606   0.0000                                         
     4  3  2.50        -2.7212   0.0000                                         
   Description                                                                  
     l       E           TYP  RCUT    TYP  RCUT                                 
     0     -8.2107306     23  3.100                                             
     0     -6.1485975     23  3.100                                             
     1     -2.5184867     23  3.100                                             
     1      3.2427302     23  3.100                                             
     2     -1.3605826     23  3.100                                             
     3     -1.3605826     23  3.100                                             
  local pseudopotential read in
  partial core-charges read in
  partial kinetic energy density read in
  atomic valenz-charges read in
  non local Contribution for L=           0  read in
    real space projection operators read in
  non local Contribution for L=           0  read in
    real space projection operators read in
  non local Contribution for L=           1  read in
    real space projection operators read in
  non local Contribution for L=           1  read in
    real space projection operators read in
  non local Contribution for L=           2  read in
    real space projection operators read in
    PAW grid and wavefunctions read in
 
   number of l-projection  operators is LMAX  =           5
   number of lm-projection operators is LMMAX =          13
 
 POTCAR:    PAW_PBE As 22Sep2009                  
   VRHFIN =As: s2p3                                                             
   LEXCH  = PE                                                                  
   EATOM  =   170.1867 eV,   12.5084 Ry                                         
                                                                                
   TITEL  = PAW_PBE As 22Sep2009                                                
   LULTRA =        F    use ultrasoft PP ?                                      
   IUNSCR =        1    unscreen: 0-lin 1-nonlin 2-no                           
   RPACOR =    1.900    partial core radius                                     
   POMASS =   74.922; ZVAL   =    5.000    mass and valenz                      
   RCORE  =    2.100    outmost cutoff radius                                   
   RWIGS  =    2.300; RWIGS  =    1.217    wigner-seitz radius (au A)           
   ENMAX  =  208.702; ENMIN  =  156.526 eV                                      
   ICORE  =        3    local potential                                         
   LCOR   =        T    correct aug charges                                     
   LPAW   =        T    paw PP                                                  
   EAUG   =  462.758                                                            
   DEXC   =    0.000                                                            
   RMAX   =    2.144    core radius for proj-oper                               
   RAUG   =    1.300    factor for augmentation sphere                          
   RDEP   =    2.140    radius for radial grids                                 
   RDEPT  =    1.956    core radius for aug-charge                              
                                                                                
   Atomic configuration                                                         
   10 entries                                                                   
     n  l   j            E        occ.                                          
     1  0  0.50    -11718.0418   2.0000                                         
     2  0  0.50     -1486.5454   2.0000                                         
     2  1  1.50     -1303.3889   6.0000                                         
     3  0  0.50      -190.2849   2.0000                                         
     3  1  1.50      -133.6555   6.0000                                         
     3  2  2.50       -40.6443  10.0000                                         
     4  0  0.50       -14.4936   2.0000                                         
     4  1  0.50        -5.1947   3.0000                                         
     4  2  1.50        -5.4423   0.0000                                         
     4  3  2.50        -5.4423   0.0000                                         
   Description                                                                  
     l       E           TYP  RCUT    TYP  RCUT                                 
     0    -14.4935570     23  2.100                                             
     0    -11.9212055     23  2.100                                             
     1     -5.1947127     23  2.100                                             
     1     27.2116520     23  2.100                                             
     2     -5.4423304     23  2.100                                             
     3     -1.3605826      7  2.100                                             
  local pseudopotential read in
  partial core-charges read in
  partial kinetic energy density read in
  atomic valenz-charges read in
  non local Contribution for L=           0  read in
    real space projection operators read in
  non local Contribution for L=           0  read in
    real space projection operators read in
  non local Contribution for L=           1  read in
    real space projection operators read in
  non local Contribution for L=           1  read in
    real space projection operators read in
  non local Contribution for L=           2  read in
    real space projection operators read in
    PAW grid and wavefunctions read in
 
   number of l-projection  operators is LMAX  =           5
   number of lm-projection operators is LMMAX =          13
 
  PAW_PBE In 08Apr2002                  :
 energy of atom  1       EATOM=  -53.7908
 kinetic energy error for atom=    0.0000 (will be added to EATOM!!)
  PAW_PBE As 22Sep2009                  :
 energy of atom  2       EATOM= -170.1867
 kinetic energy error for atom=    0.0013 (will be added to EATOM!!)
 
 
 POSCAR: In As                                   
  positions in direct lattice
  No initial velocities read in
 exchange correlation table for  LEXCH =        8
   RHO(1)=    0.500       N(1)  =     2000
   RHO(2)=  100.500       N(2)  =     4000
 


--------------------------------------------------------------------------------------------------------


 ion  position               nearest neighbor table
   1  0.000  0.000  0.000-   2 2.62   2 2.62   2 2.62   2 2.62
   2  0.750  0.750  0.750-   1 2.62   1 2.62   1 2.62   1 2.62
 
  LATTYP: Found a face centered cubic cell.
 ALAT       =     6.0584000000
  
  Lattice vectors:
  
 A1 = (   0.0000000000,   3.0292000000,   3.0292000000)
 A2 = (   3.0292000000,   0.0000000000,   3.0292000000)
 A3 = (   3.0292000000,   3.0292000000,   0.0000000000)


Analysis of symmetry for initial positions (statically):
=====================================================================
 Subroutine PRICEL returns:
 Original cell was already a primitive cell.
 

 Routine SETGRP: Setting up the symmetry group for a 
 face centered cubic supercell.


 Subroutine GETGRP returns: Found 24 space group operations
 (whereof 24 operations were pure point group operations)
 out of a pool of 48 trial point group operations.


The static configuration has the point symmetry T_d .


Analysis of symmetry for dynamics (positions and initial velocities):
=====================================================================
 Subroutine PRICEL returns:
 Original cell was already a primitive cell.
 

 Routine SETGRP: Setting up the symmetry group for a 
 face centered cubic supercell.


 Subroutine GETGRP returns: Found 24 space group operations
 (whereof 24 operations were pure point group operations)
 out of a pool of 48 trial point group operations.


The dynamic configuration has the point symmetry T_d .


Analysis of structural, dynamic, and magnetic symmetry:
=====================================================================
 Subroutine PRICEL returns:
 Original cell was already a primitive cell.
 

 Routine SETGRP: Setting up the symmetry group for a 
 face centered cubic supercell.


 Subroutine GETGRP returns: Found 24 space group operations
 (whereof 24 operations were pure point group operations)
 out of a pool of 48 trial point group operations.


The (compounded) configuration has the point symmetry T_d .


 Subroutine INISYM returns: Found 24 space group operations
 (whereof 24 operations are pure point group operations),
 and found     1 'primitive' translations

 
 
 KPOINTS: KPOINTS created by Atomic Simulation Env

Automatic generation of k-mesh.
Space group operators:
 irot       det(A)        alpha          n_x          n_y          n_z        tau_x        tau_y        tau_z
    1     1.000000     0.000000     1.000000     0.000000     0.000000     0.000000     0.000000     0.000000
    2     1.000000   120.000000    -0.577350    -0.577350    -0.577350     0.000000     0.000000     0.000000
    3     1.000000   120.000000     0.577350     0.577350     0.577350     0.000000     0.000000     0.000000
    4    -1.000000    90.000000     0.000000     0.000000    -1.000000     0.000000     0.000000     0.000000
    5    -1.000000   180.000000     0.000000     0.707107     0.707107     0.000000     0.000000     0.000000
    6    -1.000000    90.000000     0.000000     1.000000     0.000000     0.000000     0.000000     0.000000
    7     1.000000   180.000000     0.000000     0.000000     1.000000     0.000000     0.000000     0.000000
    8     1.000000   120.000000    -0.577350     0.577350     0.577350     0.000000     0.000000     0.000000
    9     1.000000   120.000000    -0.577350     0.577350    -0.577350     0.000000     0.000000     0.000000
   10    -1.000000    90.000000     0.000000     0.000000     1.000000     0.000000     0.000000     0.000000
   11    -1.000000    90.000000    -1.000000     0.000000     0.000000     0.000000     0.000000     0.000000
   12    -1.000000   180.000000     0.707107     0.000000     0.707107     0.000000     0.000000     0.000000
   13     1.000000   120.000000     0.577350    -0.577350     0.577350     0.000000     0.000000     0.000000
   14     1.000000   120.000000    -0.577350    -0.577350     0.577350     0.000000     0.000000     0.000000
   15     1.000000   180.000000     1.000000     0.000000     0.000000     0.000000     0.000000     0.000000
   16    -1.000000    90.000000     0.000000    -1.000000     0.000000     0.000000     0.000000     0.000000
   17    -1.000000   180.000000     0.707107     0.707107     0.000000     0.000000     0.000000     0.000000
   18    -1.000000    90.000000     1.000000     0.000000     0.000000     0.000000     0.000000     0.000000
   19     1.000000   120.000000     0.577350    -0.577350    -0.577350     0.000000     0.000000     0.000000
   20     1.000000   180.000000     0.000000     1.000000     0.000000     0.000000     0.000000     0.000000
   21     1.000000   120.000000     0.577350     0.577350    -0.577350     0.000000     0.000000     0.000000
   22    -1.000000   180.000000     0.000000    -0.707107     0.707107     0.000000     0.000000     0.000000
   23    -1.000000   180.000000     0.707107    -0.707107     0.000000     0.000000     0.000000     0.000000
   24    -1.000000   180.000000     0.707107     0.000000    -0.707107     0.000000     0.000000     0.000000
 
 Subroutine IBZKPT returns following result:
 ===========================================
 
 Found     30 irreducible k-points:
 
 Following reciprocal coordinates:
            Coordinates               Weight
  0.000000  0.000000  0.000000      1.000000
  0.142857  0.000000  0.000000      4.000000
  0.285714  0.000000  0.000000      4.000000
  0.428571  0.000000  0.000000      4.000000
 -0.428571  0.000000  0.000000      4.000000
 -0.285714  0.000000  0.000000      4.000000
 -0.142857  0.000000  0.000000      4.000000
  0.142857  0.142857  0.000000      6.000000
  0.285714  0.142857  0.000000     12.000000
  0.428571  0.142857  0.000000     12.000000
 -0.428571  0.142857  0.000000     12.000000
 -0.285714  0.142857  0.000000     12.000000
 -0.142857  0.142857  0.000000     12.000000
  0.285714  0.285714  0.000000      6.000000
  0.428571  0.285714  0.000000     12.000000
 -0.428571  0.285714  0.000000     12.000000
 -0.285714  0.285714  0.000000     12.000000
 -0.142857  0.285714  0.000000     12.000000
  0.428571  0.428571  0.000000      6.000000
 -0.428571  0.428571  0.000000     12.000000
 -0.285714  0.428571  0.000000     12.000000
 -0.142857  0.428571  0.000000     12.000000
 -0.285714 -0.428571  0.000000     12.000000
 -0.142857 -0.428571  0.000000     12.000000
 -0.142857 -0.285714  0.000000     12.000000
  0.428571  0.285714  0.142857     24.000000
 -0.428571  0.285714  0.142857     24.000000
 -0.285714  0.285714  0.142857     24.000000
 -0.428571  0.428571  0.142857     24.000000
 -0.285714  0.428571  0.142857     24.000000
 
 Following cartesian coordinates:
            Coordinates               Weight
  0.000000  0.000000  0.000000      1.000000
 -0.023580  0.023580  0.023580      4.000000
 -0.047160  0.047160  0.047160      4.000000
 -0.070740  0.070740  0.070740      4.000000
  0.070740 -0.070740 -0.070740      4.000000
  0.047160 -0.047160 -0.047160      4.000000
  0.023580 -0.023580 -0.023580      4.000000
  0.000000  0.000000  0.047160      6.000000
 -0.023580  0.023580  0.070740     12.000000
 -0.047160  0.047160  0.094320     12.000000
  0.094320 -0.094320 -0.047160     12.000000
  0.070740 -0.070740 -0.023580     12.000000
  0.047160 -0.047160  0.000000     12.000000
  0.000000  0.000000  0.094320      6.000000
 -0.023580  0.023580  0.117900     12.000000
  0.117900 -0.117900 -0.023580     12.000000
  0.094320 -0.094320  0.000000     12.000000
  0.070740 -0.070740  0.023580     12.000000
  0.000000  0.000000  0.141480      6.000000
  0.141480 -0.141480  0.000000     12.000000
  0.117900 -0.117900  0.023580     12.000000
  0.094320 -0.094320  0.047160     12.000000
 -0.023580  0.023580 -0.117900     12.000000
 -0.047160  0.047160 -0.094320     12.000000
 -0.023580  0.023580 -0.070740     12.000000
 -0.000000  0.047160  0.094320     24.000000
  0.141480 -0.094320 -0.047160     24.000000
  0.117900 -0.070740 -0.023580     24.000000
  0.165060 -0.117900 -0.023580     24.000000
  0.141480 -0.094320 -0.000000     24.000000
 


--------------------------------------------------------------------------------------------------------




 Dimension of arrays:
   k-points           NKPTS =     30   k-points in BZ     NKDIM =     30   number of bands    NBANDS=     21
   number of dos      NEDOS =    301   number of ions     NIONS =      2
   non local maximal  LDIM  =      5   non local SUM 2l+1 LMDIM =     13
   total plane-waves  NPLWV =  13824
   max r-space proj   IRMAX =      1   max aug-charges    IRDMAX=  28249
   dimension x,y,z NGX =    24 NGY =   24 NGZ =   24
   dimension x,y,z NGXF=    48 NGYF=   48 NGZF=   48
   support grid    NGXF=    48 NGYF=   48 NGZF=   48
   ions per type =               1   1
   NGX,Y,Z   is equivalent  to a cutoff of   9.31,  9.31,  9.31 a.u.
   NGXF,Y,Z  is equivalent  to a cutoff of  18.63, 18.63, 18.63 a.u.

 SYSTEM =  unknown system                          
 POSCAR =  In As                                   

 Startparameter for this run:
   NWRITE =      2    write-flag & timer
   PREC   = n         normal or accurate (medium, high low for compatibility)
   ISTART =      0    job   : 0-new  1-cont  2-samecut
   ICHARG =      2    charge: 1-file 2-atom 10-const
   ISPIN  =      1    spin polarized calculation?
   LNONCOLLINEAR =      T non collinear calculations
   LSORBIT =      T    spin-orbit coupling
   INIWAV =      1    electr: 0-lowe 1-rand  2-diag
   LASPH  =      F    aspherical Exc in radial PAW
   METAGGA=      F    non-selfconsistent MetaGGA calc.

 Electronic Relaxation 1
   ENCUT  =  400.0 eV  29.40 Ry    5.42 a.u.   6.99  6.99  6.99*2*pi/ulx,y,z
   ENINI  =  400.0     initial cutoff
   ENAUG  =  462.8 eV  augmentation charge cutoff
   NELM   =     60;   NELMIN=  2; NELMDL= -5     # of ELM steps 
   EDIFF  = 0.1E-04   stopping-criterion for ELM
   LREAL  =      F    real-space projection
   NLSPLINE    = F    spline interpolate recip. space projectors
   LCOMPAT=      F    compatible to vasp.4.4
   GGA_COMPAT  = T    GGA compatible to vasp.4.4-vasp.4.6
   LMAXPAW     = -100 max onsite density
   LMAXMIX     =    4 max onsite mixed and CHGCAR
   VOSKOWN=      0    Vosko Wilk Nusair interpolation
   ROPT   =    0.00000   0.00000
 Ionic relaxation
   EDIFFG = 0.1E-03   stopping-criterion for IOM
   NSW    =      0    number of steps for IOM
   NBLOCK =      1;   KBLOCK =      1    inner block; outer block 
   IBRION =     -1    ionic relax: 0-MD 1-quasi-New 2-CG
   NFREE  =      0    steps in history (QN), initial steepest desc. (CG)
   ISIF   =      2    stress and relaxation
   IWAVPR =     10    prediction:  0-non 1-charg 2-wave 3-comb
   ISYM   =      2    0-nonsym 1-usesym 2-fastsym
   LCORR  =      T    Harris-Foulkes like correction to forces

   POTIM  = 0.5000    time-step for ionic-motion
   TEIN   =    0.0    initial temperature
   TEBEG  =    0.0;   TEEND  =   0.0 temperature during run
   SMASS  =  -3.00    Nose mass-parameter (am)
   estimated Nose-frequenzy (Omega)   =  0.10E-29 period in steps =****** mass=  -0.419E-27a.u.
   SCALEE = 1.0000    scale energy and forces
   NPACO  =    256;   APACO  = 16.0  distance and # of slots for P.C.
   PSTRESS=    0.0 pullay stress

  Mass of Ions in am
   POMASS = 114.82 74.92
  Ionic Valenz
   ZVAL   =   3.00  5.00
  Atomic Wigner-Seitz radii
   RWIGS  =  -1.00 -1.00
  virtual crystal weights 
   VCA    =   1.00  1.00
   NELECT =       8.0000    total number of electrons
   NUPDOWN=      -1.0000    fix difference up-down

 DOS related values:
   EMIN   =  10.00;   EMAX   =-10.00  energy-range for DOS
   EFERMI =   0.00
   ISMEAR =     1;   SIGMA  =   0.05  broadening in eV -4-tet -1-fermi 0-gaus

 Electronic relaxation 2 (details)
   IALGO  =     53    algorithm
   LDIAG  =      T    sub-space diagonalisation (order eigenvalues)
   LSUBROT=      F    optimize rotation matrix (better conditioning)
   TURBO    =      0    0=normal 1=particle mesh
   IRESTART =      0    0=no restart 2=restart with 2 vectors
   NREBOOT  =      0    no. of reboots
   NMIN     =      0    reboot dimension
   EREF     =   0.00    reference energy to select bands
   IMIX   =      4    mixing-type and parameters
     AMIX     =   0.40;   BMIX     =  3.00
     AMIX_MAG =   1.60;   BMIX_MAG =  3.00
     AMIN     =   0.01
     WC   =   100.;   INIMIX=   1;  MIXPRE=   1;  MAXMIX= -45

 Intra band minimization:
   WEIMIN = 0.0000     energy-eigenvalue tresh-hold
   EBREAK =  0.12E-06  absolut break condition
   DEPER  =   0.30     relativ break condition  

   TIME   =   0.40     timestep for ELM

  volume/ion in A,a.u.               =      27.80       187.58
  Fermi-wavevector in a.u.,A,eV,Ry     =   0.857894  1.621184 10.013641  0.735982
  Thomas-Fermi vector in A             =   1.975016
 
 Write flags
   LWAVE        =      T    write WAVECAR
   LDOWNSAMPLE  =      F    k-point downsampling of WAVECAR
   LCHARG       =      T    write CHGCAR
   LVTOT        =      F    write LOCPOT, total local potential
   LVHAR        =      F    write LOCPOT, Hartree potential only
   LELF         =      F    write electronic localiz. function (ELF)
   LORBIT       =      0    0 simple, 1 ext, 2 COOP (PROOUT), +10 PAW based schemes


 Dipole corrections
   LMONO  =      F    monopole corrections only (constant potential shift)
   LDIPOL =      F    correct potential (dipole corrections)
   IDIPOL =      0    1-x, 2-y, 3-z, 4-all directions 
   EPSILON=  1.0000000 bulk dielectric constant

 LDA+U is selected, type is set to LDAUTYPE =  2
   angular momentum for each species LDAUL =     1    1
   U (eV)           for each species LDAUU =  -0.3 -5.7
   J (eV)           for each species LDAUJ =   0.0  0.0
 Exchange correlation treatment:
   GGA     =    PE    GGA type
   LEXCH   =     8    internal setting for exchange type
   VOSKOWN=      0    Vosko Wilk Nusair interpolation
   LHFCALC =     F    Hartree Fock is set to
   LHFONE  =     F    Hartree Fock one center treatment
   AEXX    =    0.0000 exact exchange contribution

 Linear response parameters
   LEPSILON=     F    determine dielectric tensor
   LRPA    =     F    only Hartree local field effects (RPA)
   LNABLA  =     F    use nabla operator in PAW spheres
   LVEL    =     F    velocity operator in full k-point grid
   LINTERFAST=   F  fast interpolation
   KINTER  =     0    interpolate to denser k-point grid
   CSHIFT  =0.1000    complex shift for real part using Kramers Kronig
   OMEGAMAX=  -1.0    maximum frequency
   DEG_THRESHOLD= 0.2000000E-02 threshold for treating states as degnerate
   RTIME   =   -0.100 relaxation time in fs
  (WPLASMAI=    0.000 imaginary part of plasma frequency in eV, 0.658/RTIME)
   DFIELD  = 0.0000000 0.0000000 0.0000000 field for delta impulse in time
 
 Orbital magnetization related:
   ORBITALMAG=     F  switch on orbital magnetization
   LCHIMAG   =     F  perturbation theory with respect to B field
   DQ        =  0.001000  dq finite difference perturbation B field
   LLRAUG    =     F  two centre corrections for induced B field



--------------------------------------------------------------------------------------------------------


 Static calculation
 charge density and potential will be updated during run
 non collinear spin polarized calculation
 Conjugate gradient for all bands (Freysoldt, et al. PRB 79, 241103 (2009))
 perform sub-space diagonalisation
    before iterative eigenvector-optimisation
 modified Broyden-mixing scheme, WC =      100.0
 initial mixing is a Kerker type mixing with AMIX =  0.4000 and BMIX =      3.0000
 Hartree-type preconditioning will be used
 using additional bands           17
 reciprocal scheme for non local part
 use partial core corrections
 no Harris-corrections to forces 
 use gradient corrections 
 use of overlap-Matrix (Vanderbilt PP)
 Methfessel and Paxton  Order N= 1 SIGMA  =   0.05


--------------------------------------------------------------------------------------------------------


  energy-cutoff  :      400.00
  volume of cell :       55.59
      direct lattice vectors                 reciprocal lattice vectors
     0.000000000  3.029200000  3.029200000    -0.165060082  0.165060082  0.165060082
     3.029200000  0.000000000  3.029200000     0.165060082 -0.165060082  0.165060082
     3.029200000  3.029200000  0.000000000     0.165060082  0.165060082 -0.165060082

  length of vectors
     4.283935723  4.283935723  4.283935723     0.285892448  0.285892448  0.285892448


 
 k-points in units of 2pi/SCALE and weight: KPOINTS created by Atomic Simulation Env
   0.00000000  0.00000000  0.00000000       0.003
  -0.02358001  0.02358001  0.02358001       0.012
  -0.04716002  0.04716002  0.04716002       0.012
  -0.07074004  0.07074004  0.07074004       0.012
   0.07074004 -0.07074004 -0.07074004       0.012
   0.04716002 -0.04716002 -0.04716002       0.012
   0.02358001 -0.02358001 -0.02358001       0.012
   0.00000000  0.00000000  0.04716002       0.017
  -0.02358001  0.02358001  0.07074004       0.035
  -0.04716002  0.04716002  0.09432005       0.035
   0.09432005 -0.09432005 -0.04716002       0.035
   0.07074004 -0.07074004 -0.02358001       0.035
   0.04716002 -0.04716002  0.00000000       0.035
   0.00000000  0.00000000  0.09432005       0.017
  -0.02358001  0.02358001  0.11790006       0.035
   0.11790006 -0.11790006 -0.02358001       0.035
   0.09432005 -0.09432005  0.00000000       0.035
   0.07074004 -0.07074004  0.02358001       0.035
   0.00000000  0.00000000  0.14148007       0.017
   0.14148007 -0.14148007  0.00000000       0.035
   0.11790006 -0.11790006  0.02358001       0.035
   0.09432005 -0.09432005  0.04716002       0.035
  -0.02358001  0.02358001 -0.11790006       0.035
  -0.04716002  0.04716002 -0.09432005       0.035
  -0.02358001  0.02358001 -0.07074004       0.035
  -0.00000000  0.04716002  0.09432005       0.070
   0.14148007 -0.09432005 -0.04716002       0.070
   0.11790006 -0.07074004 -0.02358001       0.070
   0.16506008 -0.11790006 -0.02358001       0.070
   0.14148007 -0.09432005 -0.00000000       0.070
 
 k-points in reciprocal lattice and weights: KPOINTS created by Atomic Simulation Env
   0.00000000  0.00000000  0.00000000       0.003
   0.14285714  0.00000000  0.00000000       0.012
   0.28571429  0.00000000  0.00000000       0.012
   0.42857143  0.00000000  0.00000000       0.012
  -0.42857143  0.00000000  0.00000000       0.012
  -0.28571429  0.00000000  0.00000000       0.012
  -0.14285714  0.00000000  0.00000000       0.012
   0.14285714  0.14285714  0.00000000       0.017
   0.28571429  0.14285714  0.00000000       0.035
   0.42857143  0.14285714  0.00000000       0.035
  -0.42857143  0.14285714  0.00000000       0.035
  -0.28571429  0.14285714  0.00000000       0.035
  -0.14285714  0.14285714  0.00000000       0.035
   0.28571429  0.28571429  0.00000000       0.017
   0.42857143  0.28571429  0.00000000       0.035
  -0.42857143  0.28571429  0.00000000       0.035
  -0.28571429  0.28571429  0.00000000       0.035
  -0.14285714  0.28571429  0.00000000       0.035
   0.42857143  0.42857143  0.00000000       0.017
  -0.42857143  0.42857143  0.00000000       0.035
  -0.28571429  0.42857143  0.00000000       0.035
  -0.14285714  0.42857143  0.00000000       0.035
  -0.28571429 -0.42857143  0.00000000       0.035
  -0.14285714 -0.42857143  0.00000000       0.035
  -0.14285714 -0.28571429  0.00000000       0.035
   0.42857143  0.28571429  0.14285714       0.070
  -0.42857143  0.28571429  0.14285714       0.070
  -0.28571429  0.28571429  0.14285714       0.070
  -0.42857143  0.42857143  0.14285714       0.070
  -0.28571429  0.42857143  0.14285714       0.070
 
 position of ions in fractional coordinates (direct lattice) 
   0.00000000  0.00000000  0.00000000
   0.75000000  0.75000000  0.75000000
 
 position of ions in cartesian coordinates  (Angst):
   0.00000000  0.00000000  0.00000000
   4.54380000  4.54380000  4.54380000
 
 Euler angles ALPHA=     0.0000000  BETA=     0.0000000

 transformation matrix from SAXIS to cartesian coordinates
 ---------------------------------------------------------
     1.0000000 m_x     0.0000000 m_y     0.0000000 m_z
     0.0000000 m_x     1.0000000 m_y     0.0000000 m_z
     0.0000000 m_x     0.0000000 m_y     1.0000000 m_z

 transformation matrix from cartesian coordinates to SAXIS
 ---------------------------------------------------------
     1.0000000 m_x     0.0000000 m_y     0.0000000 m_z
     0.0000000 m_x     1.0000000 m_y     0.0000000 m_z
     0.0000000 m_x     0.0000000 m_y     1.0000000 m_z




--------------------------------------------------------------------------------------------------------


 k-point  1 :   0.0000 0.0000 0.0000  plane waves:    1930
 k-point  2 :   0.1429 0.0000 0.0000  plane waves:    1978
 k-point  3 :   0.2857 0.0000 0.0000  plane waves:    2020
 k-point  4 :   0.4286 0.0000 0.0000  plane waves:    2034
 k-point  5 :  -0.4286 0.0000 0.0000  plane waves:    2034
 k-point  6 :  -0.2857 0.0000 0.0000  plane waves:    2020
 k-point  7 :  -0.1429 0.0000 0.0000  plane waves:    1978
 k-point  8 :   0.1429 0.1429 0.0000  plane waves:    1988
 k-point  9 :   0.2857 0.1429 0.0000  plane waves:    2000
 k-point 10 :   0.4286 0.1429 0.0000  plane waves:    2020
 k-point 11 :  -0.4286 0.1429 0.0000  plane waves:    2012
 k-point 12 :  -0.2857 0.1429 0.0000  plane waves:    2036
 k-point 13 :  -0.1429 0.1429 0.0000  plane waves:    1990
 k-point 14 :   0.2857 0.2857 0.0000  plane waves:    2036
 k-point 15 :   0.4286 0.2857 0.0000  plane waves:    2024
 k-point 16 :  -0.4286 0.2857 0.0000  plane waves:    2022
 k-point 17 :  -0.2857 0.2857 0.0000  plane waves:    2022
 k-point 18 :  -0.1429 0.2857 0.0000  plane waves:    2036
 k-point 19 :   0.4286 0.4286 0.0000  plane waves:    2012
 k-point 20 :  -0.4286 0.4286 0.0000  plane waves:    2026
 k-point 21 :  -0.2857 0.4286 0.0000  plane waves:    2022
 k-point 22 :  -0.1429 0.4286 0.0000  plane waves:    2012
 k-point 23 :  -0.2857-0.4286 0.0000  plane waves:    2024
 k-point 24 :  -0.1429-0.4286 0.0000  plane waves:    2020
 k-point 25 :  -0.1429-0.2857 0.0000  plane waves:    2000
 k-point 26 :   0.4286 0.2857 0.1429  plane waves:    2022
 k-point 27 :  -0.4286 0.2857 0.1429  plane waves:    2026
 k-point 28 :  -0.2857 0.2857 0.1429  plane waves:    2026
 k-point 29 :  -0.4286 0.4286 0.1429  plane waves:    2038
 k-point 30 :  -0.2857 0.4286 0.1429  plane waves:    2028

 maximum and minimum number of plane-waves per node :       704      622

 maximum number of plane-waves:      2038
 maximum index in each direction: 
   IXMAX=    7   IYMAX=    7   IZMAX=    6
   IXMIN=   -7   IYMIN=   -7   IZMIN=   -7


 parallel 3D FFT for wavefunctions:
    minimum data exchange during FFTs selected (reduces bandwidth)
 parallel 3D FFT for charge:
    minimum data exchange during FFTs selected (reduces bandwidth)


 total amount of memory used by VASP MPI-rank0    44646. kBytes
=======================================================================

   base      :      30000. kBytes
   nonl-proj :       2220. kBytes
   fftplans  :       1050. kBytes
   grid      :       3907. kBytes
   one-center:         32. kBytes
   wavefun   :       7437. kBytes
 
     INWAV:  cpu time    0.0000: real time    0.0006
 Broyden mixing: mesh for mixing (old mesh)
   NGX = 13   NGY = 13   NGZ = 13
  (NGX  = 48   NGY  = 48   NGZ  = 48)
  gives a total of   2197 points

 initial charge density was supplied:
 charge density of overlapping atoms calculated
 number of electron       8.0000000 magnetization       0.0000000      0.0000000      0.0000000
 keeping initial charge density in first step


--------------------------------------------------------------------------------------------------------


 Maximum index for augmentation-charges         3635 (set IRDMAX)


--------------------------------------------------------------------------------------------------------


 First call to EWALD:  gamma=   0.464
 Maximum number of real-space cells 3x 3x 3
 Maximum number of reciprocal cells 3x 3x 3

    FEWALD:  cpu time    0.0014: real time    0.0014


--------------------------------------- Iteration      1(   1)  ---------------------------------------


    POTLOK:  cpu time    0.0535: real time    0.0535
    SETDIJ:  cpu time    0.0160: real time    0.0161
    TRIAL :  cpu time    0.1547: real time    0.1551
    CORREC:  cpu time    0.0008: real time    0.0008
    --------------------------------------------
      LOOP:  cpu time    0.2311: real time    0.2328

 eigenvalue-minimisations  :  1749
 total energy-change (2. order) : 0.3239981E+02  (-0.2716154E+03)
 number of electron       8.0000000 magnetization       0.0000000      0.0000000      0.0000000
 augmentation part        8.0000000 magnetization       0.0000000      0.0000000      0.0000000

 Free energy of the ion-electron system (eV)
  ---------------------------------------------------
  alpha Z        PSCENC =         6.67624893
  Ewald energy   TEWEN  =      -213.84743004
  -Hartree energ DENC   =       -21.29595069
  -exchange      EXHF   =         0.00000000
  -V(xc)+E(xc)   XCENC  =       -67.69638834
  PAW double counting   =       241.28716127     -161.20850614
  entropy T*S    EENTRO =        -0.00024824
  eigenvalues    EBANDS =        24.50871499
  atomic energy  EATOM  =       223.97621261
  ---------------------------------------------------
  free energy    TOTEN  =        32.39981436 eV

  energy without entropy =       32.40006260  energy(sigma->0) =       32.39989711


--------------------------------------------------------------------------------------------------------




--------------------------------------- Iteration      1(   2)  ---------------------------------------


    TRIAL :  cpu time    0.1973: real time    0.1978
    CORREC:  cpu time    0.0007: real time    0.0007
    --------------------------------------------
      LOOP:  cpu time    0.1983: real time    0.1988

 eigenvalue-minimisations  :  2520
 total energy-change (2. order) :-0.3767031E+02  (-0.3364437E+02)
 number of electron       8.0000000 magnetization       0.0000000      0.0000000      0.0000000
 augmentation part        8.0000000 magnetization       0.0000000      0.0000000      0.0000000

 Free energy of the ion-electron system (eV)
  ---------------------------------------------------
  alpha Z        PSCENC =         6.67624893
  Ewald energy   TEWEN  =      -213.84743004
  -Hartree energ DENC   =       -21.29595069
  -exchange      EXHF   =         0.00000000
  -V(xc)+E(xc)   XCENC  =       -67.69638834
  PAW double counting   =       241.28716127     -161.20850614
  entropy T*S    EENTRO =        -0.00015083
  eigenvalues    EBANDS =       -13.16169311
  atomic energy  EATOM  =       223.97621261
  ---------------------------------------------------
  free energy    TOTEN  =        -5.27049634 eV

  energy without entropy =       -5.27034550  energy(sigma->0) =       -5.27044606


--------------------------------------------------------------------------------------------------------




--------------------------------------- Iteration      1(   3)  ---------------------------------------


    TRIAL :  cpu time    0.1978: real time    0.1980
    CORREC:  cpu time    0.0007: real time    0.0007
    --------------------------------------------
      LOOP:  cpu time    0.1988: real time    0.1989

 eigenvalue-minimisations  :  2520
 total energy-change (2. order) :-0.5813539E+01  (-0.5405979E+01)
 number of electron       8.0000000 magnetization       0.0000000      0.0000000      0.0000000
 augmentation part        8.0000000 magnetization       0.0000000      0.0000000      0.0000000

 Free energy of the ion-electron system (eV)
  ---------------------------------------------------
  alpha Z        PSCENC =         6.67624893
  Ewald energy   TEWEN  =      -213.84743004
  -Hartree energ DENC   =       -21.29595069
  -exchange      EXHF   =         0.00000000
  -V(xc)+E(xc)   XCENC  =       -67.69638834
  PAW double counting   =       241.28716127     -161.20850614
  entropy T*S    EENTRO =         0.00000423
  eigenvalues    EBANDS =       -18.97538681
  atomic energy  EATOM  =       223.97621261
  ---------------------------------------------------
  free energy    TOTEN  =       -11.08403498 eV

  energy without entropy =      -11.08403920  energy(sigma->0) =      -11.08403638


--------------------------------------------------------------------------------------------------------




--------------------------------------- Iteration      1(   4)  ---------------------------------------


    TRIAL :  cpu time    0.1959: real time    0.1962
    CORREC:  cpu time    0.0007: real time    0.0007
    --------------------------------------------
      LOOP:  cpu time    0.1968: real time    0.1971

 eigenvalue-minimisations  :  2520
 total energy-change (2. order) :-0.8526552E+00  (-0.8120849E+00)
 number of electron       8.0000000 magnetization       0.0000000      0.0000000      0.0000000
 augmentation part        8.0000000 magnetization       0.0000000      0.0000000      0.0000000

 Free energy of the ion-electron system (eV)
  ---------------------------------------------------
  alpha Z        PSCENC =         6.67624893
  Ewald energy   TEWEN  =      -213.84743004
  -Hartree energ DENC   =       -21.29595069
  -exchange      EXHF   =         0.00000000
  -V(xc)+E(xc)   XCENC  =       -67.69638834
  PAW double counting   =       241.28716127     -161.20850614
  entropy T*S    EENTRO =         0.00000423
  eigenvalues    EBANDS =       -19.82804197
  atomic energy  EATOM  =       223.97621261
  ---------------------------------------------------
  free energy    TOTEN  =       -11.93669014 eV

  energy without entropy =      -11.93669437  energy(sigma->0) =      -11.93669155


--------------------------------------------------------------------------------------------------------




--------------------------------------- Iteration      1(   5)  ---------------------------------------


    TRIAL :  cpu time    0.1947: real time    0.1950
    CORREC:  cpu time    0.0011: real time    0.0011
    CHARGE:  cpu time    0.0328: real time    0.0328
    --------------------------------------------
      LOOP:  cpu time    0.2289: real time    0.2292

 eigenvalue-minimisations  :  2520
 total energy-change (2. order) :-0.1405865E+00  (-0.1352969E+00)
 number of electron       8.0000004 magnetization       0.0000000      0.0000000      0.0000000
 augmentation part       -1.4309770 magnetization       0.0000000      0.0000000      0.0000000

 Free energy of the ion-electron system (eV)
  ---------------------------------------------------
  alpha Z        PSCENC =         6.67624893
  Ewald energy   TEWEN  =      -213.84743004
  -Hartree energ DENC   =       -21.29595069
  -exchange      EXHF   =         0.00000000
  -V(xc)+E(xc)   XCENC  =       -67.69638834
  PAW double counting   =       241.28716127     -161.20850614
  entropy T*S    EENTRO =         0.00000607
  eigenvalues    EBANDS =       -19.96863034
  atomic energy  EATOM  =       223.97621261
  ---------------------------------------------------
  free energy    TOTEN  =       -12.07727667 eV

  energy without entropy =      -12.07728274  energy(sigma->0) =      -12.07727869


--------------------------------------------------------------------------------------------------------




--------------------------------------- Iteration      1(   6)  ---------------------------------------


    POTLOK:  cpu time    0.0548: real time    0.0569
    SETDIJ:  cpu time    0.0149: real time    0.0149
    TRIAL :  cpu time    0.0787: real time    0.0790
    CORREC:  cpu time    0.0008: real time    0.0008
    CHARGE:  cpu time    0.0318: real time    0.0318
    --------------------------------------------
      LOOP:  cpu time    0.1818: real time    0.1843

 eigenvalue-minimisations  :     0
 total energy-change (2. order) : 0.1580510E+01  (-0.9332431E+00)
 number of electron       8.0000003 magnetization       0.0000000      0.0000000      0.0000000
 augmentation part       -1.4236506 magnetization       0.0000000      0.0000000      0.0000000

 Free energy of the ion-electron system (eV)
  ---------------------------------------------------
  alpha Z        PSCENC =         6.67624893
  Ewald energy   TEWEN  =      -213.84743004
  -Hartree energ DENC   =       -33.28653809
  -exchange      EXHF   =         0.00000000
  -V(xc)+E(xc)   XCENC  =       -66.16416838
  PAW double counting   =       621.18426582     -543.12375828
  entropy T*S    EENTRO =         0.00000642
  eigenvalues    EBANDS =        -5.91160564
  atomic energy  EATOM  =       223.97621261
  ---------------------------------------------------
  free energy    TOTEN  =       -10.49676699 eV

  energy without entropy =      -10.49677341  energy(sigma->0) =      -10.49676913


--------------------------------------------------------------------------------------------------------




--------------------------------------- Iteration      1(   7)  ---------------------------------------


    POTLOK:  cpu time    0.0516: real time    0.0527
    SETDIJ:  cpu time    0.0134: real time    0.0136
    TRIAL :  cpu time    0.0719: real time    0.0719
    CORREC:  cpu time    0.0009: real time    0.0009
    CHARGE:  cpu time    0.0311: real time    0.0311
    --------------------------------------------
      LOOP:  cpu time    0.1701: real time    0.1715

 eigenvalue-minimisations  :     0
 total energy-change (2. order) :-0.6220289E+00  (-0.2526499E+00)
 number of electron       8.0000003 magnetization       0.0000000      0.0000000     -0.0000000
 augmentation part       -1.4322133 magnetization       0.0000000      0.0000000     -0.0000000

 Free energy of the ion-electron system (eV)
  ---------------------------------------------------
  alpha Z        PSCENC =         6.67624893
  Ewald energy   TEWEN  =      -213.84743004
  -Hartree energ DENC   =       -29.44324866
  -exchange      EXHF   =         0.00000000
  -V(xc)+E(xc)   XCENC  =       -66.45715705
  PAW double counting   =       613.26762270     -534.81506458
  entropy T*S    EENTRO =         0.00000842
  eigenvalues    EBANDS =       -10.47598626
  atomic energy  EATOM  =       223.97621261
  ---------------------------------------------------
  free energy    TOTEN  =       -11.11879594 eV

  energy without entropy =      -11.11880436  energy(sigma->0) =      -11.11879875


--------------------------------------------------------------------------------------------------------




--------------------------------------- Iteration      1(   8)  ---------------------------------------


    POTLOK:  cpu time    0.0520: real time    0.0520
    SETDIJ:  cpu time    0.0130: real time    0.0130
    TRIAL :  cpu time    0.0719: real time    0.0719
    CORREC:  cpu time    0.0008: real time    0.0008
    CHARGE:  cpu time    0.0313: real time    0.0313
    --------------------------------------------
      LOOP:  cpu time    0.1693: real time    0.1693

 eigenvalue-minimisations  :     0
 total energy-change (2. order) :-0.1154018E+00  (-0.4791140E-01)
 number of electron       8.0000003 magnetization       0.0000000      0.0000000     -0.0000000
 augmentation part       -1.4496257 magnetization       0.0000000      0.0000000     -0.0000000

 Free energy of the ion-electron system (eV)
  ---------------------------------------------------
  alpha Z        PSCENC =         6.67624893
  Ewald energy   TEWEN  =      -213.84743004
  -Hartree energ DENC   =       -26.99731542
  -exchange      EXHF   =         0.00000000
  -V(xc)+E(xc)   XCENC  =       -66.66245863
  PAW double counting   =       599.34413923     -520.63991499
  entropy T*S    EENTRO =         0.00001398
  eigenvalues    EBANDS =       -13.08368784
  atomic energy  EATOM  =       223.97621261
  ---------------------------------------------------
  free energy    TOTEN  =       -11.23419773 eV

  energy without entropy =      -11.23421170  energy(sigma->0) =      -11.23420239


--------------------------------------------------------------------------------------------------------




--------------------------------------- Iteration      1(   9)  ---------------------------------------


    POTLOK:  cpu time    0.0517: real time    0.0517
    SETDIJ:  cpu time    0.0128: real time    0.0128
    TRIAL :  cpu time    0.0718: real time    0.0718
    CORREC:  cpu time    0.0009: real time    0.0009
    CHARGE:  cpu time    0.0337: real time    0.0337
    --------------------------------------------
      LOOP:  cpu time    0.1712: real time    0.1712

 eigenvalue-minimisations  :     0
 total energy-change (2. order) :-0.2951908E-01  (-0.4823625E-01)
 number of electron       8.0000003 magnetization      -0.0000000     -0.0000000      0.0000000
 augmentation part       -1.4642960 magnetization      -0.0000000     -0.0000000      0.0000000

 Free energy of the ion-electron system (eV)
  ---------------------------------------------------
  alpha Z        PSCENC =         6.67624893
  Ewald energy   TEWEN  =      -213.84743004
  -Hartree energ DENC   =       -26.42828473
  -exchange      EXHF   =         0.00000000
  -V(xc)+E(xc)   XCENC  =       -66.73009223
  PAW double counting   =       583.51846933     -504.74032800
  entropy T*S    EENTRO =         0.00002012
  eigenvalues    EBANDS =       -13.68852665
  atomic energy  EATOM  =       223.97621261
  ---------------------------------------------------
  free energy    TOTEN  =       -11.26371680 eV

  energy without entropy =      -11.26373692  energy(sigma->0) =      -11.26372351


--------------------------------------------------------------------------------------------------------




--------------------------------------- Iteration      1(  10)  ---------------------------------------


    POTLOK:  cpu time    0.0518: real time    0.0518
    SETDIJ:  cpu time    0.0128: real time    0.0128
    TRIAL :  cpu time    0.0718: real time    0.0718
    CORREC:  cpu time    0.0008: real time    0.0008
    CHARGE:  cpu time    0.0324: real time    0.0324
    --------------------------------------------
      LOOP:  cpu time    0.1702: real time    0.1702

 eigenvalue-minimisations  :     0
 total energy-change (2. order) :-0.3274712E-01  (-0.1681457E-01)
 number of electron       8.0000003 magnetization      -0.0000000     -0.0000000     -0.0000000
 augmentation part       -1.4719759 magnetization      -0.0000000     -0.0000000     -0.0000000

 Free energy of the ion-electron system (eV)
  ---------------------------------------------------
  alpha Z        PSCENC =         6.67624893
  Ewald energy   TEWEN  =      -213.84743004
  -Hartree energ DENC   =       -26.71070423
  -exchange      EXHF   =         0.00000000
  -V(xc)+E(xc)   XCENC  =       -66.72675409
  PAW double counting   =       572.62505214     -493.86207491
  entropy T*S    EENTRO =         0.00002093
  eigenvalues    EBANDS =       -13.42703444
  atomic energy  EATOM  =       223.97621261
  ---------------------------------------------------
  free energy    TOTEN  =       -11.29646393 eV

  energy without entropy =      -11.29648485  energy(sigma->0) =      -11.29647090


--------------------------------------------------------------------------------------------------------




--------------------------------------- Iteration      1(  11)  ---------------------------------------


    POTLOK:  cpu time    0.0522: real time    0.0522
    SETDIJ:  cpu time    0.0129: real time    0.0129
    TRIAL :  cpu time    0.0718: real time    0.0718
    CORREC:  cpu time    0.0009: real time    0.0009
    CHARGE:  cpu time    0.0327: real time    0.0327
    --------------------------------------------
      LOOP:  cpu time    0.1708: real time    0.1708

 eigenvalue-minimisations  :     0
 total energy-change (2. order) :-0.8861201E-02  (-0.3029204E-02)
 number of electron       8.0000003 magnetization       0.0000000      0.0000000      0.0000000
 augmentation part       -1.4740548 magnetization       0.0000000      0.0000000      0.0000000

 Free energy of the ion-electron system (eV)
  ---------------------------------------------------
  alpha Z        PSCENC =         6.67624893
  Ewald energy   TEWEN  =      -213.84743004
  -Hartree energ DENC   =       -27.02254845
  -exchange      EXHF   =         0.00000000
  -V(xc)+E(xc)   XCENC  =       -66.71265352
  PAW double counting   =       568.29252421     -489.55976933
  entropy T*S    EENTRO =         0.00001945
  eigenvalues    EBANDS =       -13.10793046
  atomic energy  EATOM  =       223.97621261
  ---------------------------------------------------
  free energy    TOTEN  =       -11.30532513 eV

  energy without entropy =      -11.30534457  energy(sigma->0) =      -11.30533161


--------------------------------------------------------------------------------------------------------




--------------------------------------- Iteration      1(  12)  ---------------------------------------


    POTLOK:  cpu time    0.0520: real time    0.0520
    SETDIJ:  cpu time    0.0130: real time    0.0130
    TRIAL :  cpu time    0.0718: real time    0.0720
    CORREC:  cpu time    0.0009: real time    0.0009
    CHARGE:  cpu time    0.0338: real time    0.0338
    --------------------------------------------
      LOOP:  cpu time    0.1718: real time    0.1721

 eigenvalue-minimisations  :     0
 total energy-change (2. order) :-0.1534752E-02  (-0.2014279E-02)
 number of electron       8.0000003 magnetization       0.0000000     -0.0000000      0.0000000
 augmentation part       -1.4736830 magnetization       0.0000000     -0.0000000      0.0000000

 Free energy of the ion-electron system (eV)
  ---------------------------------------------------
  alpha Z        PSCENC =         6.67624893
  Ewald energy   TEWEN  =      -213.84743004
  -Hartree energ DENC   =       -27.08901500
  -exchange      EXHF   =         0.00000000
  -V(xc)+E(xc)   XCENC  =       -66.71105050
  PAW double counting   =       568.19202474     -489.47245112
  entropy T*S    EENTRO =         0.00000899
  eigenvalues    EBANDS =       -13.03141895
  atomic energy  EATOM  =       223.97621261
  ---------------------------------------------------
  free energy    TOTEN  =       -11.30685988 eV

  energy without entropy =      -11.30686887  energy(sigma->0) =      -11.30686287


--------------------------------------------------------------------------------------------------------




--------------------------------------- Iteration      1(  13)  ---------------------------------------


    POTLOK:  cpu time    0.0519: real time    0.0519
    SETDIJ:  cpu time    0.0130: real time    0.0130
    TRIAL :  cpu time    0.0714: real time    0.0715
    CORREC:  cpu time    0.0009: real time    0.0009
    CHARGE:  cpu time    0.0345: real time    0.0345
    --------------------------------------------
      LOOP:  cpu time    0.1720: real time    0.1720

 eigenvalue-minimisations  :     0
 total energy-change (2. order) :-0.1339112E-02  (-0.8260505E-03)
 number of electron       8.0000003 magnetization      -0.0000000      0.0000000      0.0000000
 augmentation part       -1.4730123 magnetization      -0.0000000      0.0000000      0.0000000

 Free energy of the ion-electron system (eV)
  ---------------------------------------------------
  alpha Z        PSCENC =         6.67624893
  Ewald energy   TEWEN  =      -213.84743004
  -Hartree energ DENC   =       -27.00163607
  -exchange      EXHF   =         0.00000000
  -V(xc)+E(xc)   XCENC  =       -66.71838125
  PAW double counting   =       569.57065690     -490.84901481
  entropy T*S    EENTRO =         0.00001771
  eigenvalues    EBANDS =       -13.11486425
  atomic energy  EATOM  =       223.97621261
  ---------------------------------------------------
  free energy    TOTEN  =       -11.30819899 eV

  energy without entropy =      -11.30821670  energy(sigma->0) =      -11.30820489


--------------------------------------------------------------------------------------------------------




--------------------------------------- Iteration      1(  14)  ---------------------------------------


    POTLOK:  cpu time    0.0516: real time    0.0516
    SETDIJ:  cpu time    0.0131: real time    0.0131
    TRIAL :  cpu time    0.0716: real time    0.0716
    CORREC:  cpu time    0.0009: real time    0.0009
    CHARGE:  cpu time    0.0340: real time    0.0340
    --------------------------------------------
      LOOP:  cpu time    0.1716: real time    0.1716

 eigenvalue-minimisations  :     0
 total energy-change (2. order) :-0.4261121E-03  (-0.1428795E-03)
 number of electron       8.0000003 magnetization      -0.0000000     -0.0000000     -0.0000000
 augmentation part       -1.4727280 magnetization      -0.0000000     -0.0000000     -0.0000000

 Free energy of the ion-electron system (eV)
  ---------------------------------------------------
  alpha Z        PSCENC =         6.67624893
  Ewald energy   TEWEN  =      -213.84743004
  -Hartree energ DENC   =       -26.90987540
  -exchange      EXHF   =         0.00000000
  -V(xc)+E(xc)   XCENC  =       -66.72534746
  PAW double counting   =       570.90695295     -492.17952394
  entropy T*S    EENTRO =         0.00000930
  eigenvalues    EBANDS =       -13.20588047
  atomic energy  EATOM  =       223.97621261
  ---------------------------------------------------
  free energy    TOTEN  =       -11.30862510 eV

  energy without entropy =      -11.30863440  energy(sigma->0) =      -11.30862820


--------------------------------------------------------------------------------------------------------




--------------------------------------- Iteration      1(  15)  ---------------------------------------


    POTLOK:  cpu time    0.0519: real time    0.0519
    SETDIJ:  cpu time    0.0132: real time    0.0132
    TRIAL :  cpu time    0.0716: real time    0.0716
    CORREC:  cpu time    0.0009: real time    0.0009
    CHARGE:  cpu time    0.0345: real time    0.0345
    --------------------------------------------
      LOOP:  cpu time    0.1724: real time    0.1724

 eigenvalue-minimisations  :     0
 total energy-change (2. order) :-0.6596684E-04  (-0.8661672E-04)
 number of electron       8.0000003 magnetization       0.0000000     -0.0000000      0.0000000
 augmentation part       -1.4727184 magnetization       0.0000000     -0.0000000      0.0000000

 Free energy of the ion-electron system (eV)
  ---------------------------------------------------
  alpha Z        PSCENC =         6.67624893
  Ewald energy   TEWEN  =      -213.84743004
  -Hartree energ DENC   =       -26.87468432
  -exchange      EXHF   =         0.00000000
  -V(xc)+E(xc)   XCENC  =       -66.72797857
  PAW double counting   =       571.73426730     -493.00368666
  entropy T*S    EENTRO =         0.00001739
  eigenvalues    EBANDS =       -13.24164961
  atomic energy  EATOM  =       223.97621261
  ---------------------------------------------------
  free energy    TOTEN  =       -11.30869107 eV

  energy without entropy =      -11.30870846  energy(sigma->0) =      -11.30869686


--------------------------------------------------------------------------------------------------------




--------------------------------------- Iteration      1(  16)  ---------------------------------------


    POTLOK:  cpu time    0.0518: real time    0.0518
    SETDIJ:  cpu time    0.0129: real time    0.0129
    TRIAL :  cpu time    0.0716: real time    0.0717
    CORREC:  cpu time    0.0009: real time    0.0009
    CHARGE:  cpu time    0.0345: real time    0.0345
    --------------------------------------------
      LOOP:  cpu time    0.1721: real time    0.1722

 eigenvalue-minimisations  :     0
 total energy-change (2. order) :-0.5141588E-04  (-0.5436972E-04)
 number of electron       8.0000003 magnetization       0.0000000      0.0000000      0.0000000
 augmentation part       -1.4727460 magnetization       0.0000000      0.0000000      0.0000000

 Free energy of the ion-electron system (eV)
  ---------------------------------------------------
  alpha Z        PSCENC =         6.67624893
  Ewald energy   TEWEN  =      -213.84743004
  -Hartree energ DENC   =       -26.88260183
  -exchange      EXHF   =         0.00000000
  -V(xc)+E(xc)   XCENC  =       -66.72731735
  PAW double counting   =       572.12489792     -493.39413133
  entropy T*S    EENTRO =         0.00001731
  eigenvalues    EBANDS =       -13.23463879
  atomic energy  EATOM  =       223.97621261
  ---------------------------------------------------
  free energy    TOTEN  =       -11.30874248 eV

  energy without entropy =      -11.30875980  energy(sigma->0) =      -11.30874825


--------------------------------------------------------------------------------------------------------




--------------------------------------- Iteration      1(  17)  ---------------------------------------


    POTLOK:  cpu time    0.0510: real time    0.0510
    SETDIJ:  cpu time    0.0131: real time    0.0131
    TRIAL :  cpu time    0.0718: real time    0.0718
    CORREC:  cpu time    0.0009: real time    0.0009
    CHARGE:  cpu time    0.0312: real time    0.0314
    --------------------------------------------
      LOOP:  cpu time    0.1684: real time    0.1686

 eigenvalue-minimisations  :     0
 total energy-change (2. order) :-0.3428424E-04  (-0.1485420E-04)
 number of electron       8.0000003 magnetization      -0.0000000      0.0000000     -0.0000000
 augmentation part       -1.4727165 magnetization      -0.0000000      0.0000000     -0.0000000

 Free energy of the ion-electron system (eV)
  ---------------------------------------------------
  alpha Z        PSCENC =         6.67624893
  Ewald energy   TEWEN  =      -213.84743004
  -Hartree energ DENC   =       -26.90143702
  -exchange      EXHF   =         0.00000000
  -V(xc)+E(xc)   XCENC  =       -66.72576135
  PAW double counting   =       572.27156277     -493.54167537
  entropy T*S    EENTRO =         0.00000918
  eigenvalues    EBANDS =       -13.21651461
  atomic energy  EATOM  =       223.97621261
  ---------------------------------------------------
  free energy    TOTEN  =       -11.30877677 eV

  energy without entropy =      -11.30878595  energy(sigma->0) =      -11.30877983


--------------------------------------------------------------------------------------------------------




--------------------------------------- Iteration      1(  18)  ---------------------------------------


    POTLOK:  cpu time    0.0515: real time    0.0515
    SETDIJ:  cpu time    0.0129: real time    0.0129
    TRIAL :  cpu time    0.0717: real time    0.0717
    CORREC:  cpu time    0.0009: real time    0.0009
    CHARGE:  cpu time    0.0343: real time    0.0343
    --------------------------------------------
      LOOP:  cpu time    0.1717: real time    0.1718

 eigenvalue-minimisations  :     0
 total energy-change (2. order) :-0.1643434E-04  (-0.4991396E-05)
 number of electron       8.0000003 magnetization      -0.0000000     -0.0000000     -0.0000000
 augmentation part       -1.4726493 magnetization      -0.0000000     -0.0000000     -0.0000000

 Free energy of the ion-electron system (eV)
  ---------------------------------------------------
  alpha Z        PSCENC =         6.67624893
  Ewald energy   TEWEN  =      -213.84743004
  -Hartree energ DENC   =       -26.91297183
  -exchange      EXHF   =         0.00000000
  -V(xc)+E(xc)   XCENC  =       -66.72472536
  PAW double counting   =       572.30862789     -493.57933892
  entropy T*S    EENTRO =         0.00001726
  eigenvalues    EBANDS =       -13.20542566
  atomic energy  EATOM  =       223.97621261
  ---------------------------------------------------
  free energy    TOTEN  =       -11.30879320 eV

  energy without entropy =      -11.30881046  energy(sigma->0) =      -11.30879895


--------------------------------------------------------------------------------------------------------




--------------------------------------- Iteration      1(  19)  ---------------------------------------


    POTLOK:  cpu time    0.0519: real time    0.0519
    SETDIJ:  cpu time    0.0132: real time    0.0132
    TRIAL :  cpu time    0.0716: real time    0.0716
    CORREC:  cpu time    0.0008: real time    0.0008
    EDDIAG:  cpu time    0.0271: real time    0.0272
    CHARGE:  cpu time    0.0341: real time    0.0341
    --------------------------------------------
      LOOP:  cpu time    0.1992: real time    0.1992

 eigenvalue-minimisations  :     0
 total energy-change (2. order) : 0.5084703E-05  (-0.3133111E-05)
 number of electron       8.0000003 magnetization       0.0000000      0.0000000     -0.0000000
 augmentation part       -1.4725854 magnetization       0.0000000      0.0000000     -0.0000000

 Free energy of the ion-electron system (eV)
  ---------------------------------------------------
  alpha Z        PSCENC =         6.67624893
  Ewald energy   TEWEN  =      -213.84743004
  -Hartree energ DENC   =       -26.91505327
  -exchange      EXHF   =         0.00000000
  -V(xc)+E(xc)   XCENC  =       -66.72443261
  PAW double counting   =       572.29868578     -493.56943796
  entropy T*S    EENTRO =         0.00001725
  eigenvalues    EBANDS =       -13.20359883
  atomic energy  EATOM  =       223.97621261
  ---------------------------------------------------
  free energy    TOTEN  =       -11.30878812 eV

  energy without entropy =      -11.30880537  energy(sigma->0) =      -11.30879387


--------------------------------------------------------------------------------------------------------


  average scaling for gradient   1.3929


 average (electrostatic) potential at core
  the test charge radii are     1.4837  1.0621
  (the norm of the test charge is              1.0000)
       1 -39.2170       2 -50.2404
 
 
 
 E-fermi :   3.0440     XC(G=0):  -8.7929     alpha+bet : -8.8632


 k-point     1 :       0.0000    0.0000    0.0000
  band No.  band energies     occupation 
      1      -8.3471      1.00000
      2      -8.3471      1.00000
      3       2.6931      1.00000
      4       2.6931      1.00000
      5       3.0017      1.00084
      6       3.0017      1.00074
      7       3.0017      1.00041
      8       3.0017      0.99863
      9       3.1821     -0.00032
     10       3.1821     -0.00031
     11       6.8363      0.00000
     12       6.8363      0.00000
     13       7.2914      0.00000
     14       7.2914      0.00000
     15       7.2914      0.00000
     16       7.2914      0.00000
     17      10.7932      0.00000
     18      10.7932      0.00000
     19      12.8338      0.00000
     20      12.8476      0.00000
     21      13.1120      0.00000

 k-point     2 :       0.1429    0.0000    0.0000
  band No.  band energies     occupation 
      1      -8.1665      1.00000
      2      -8.1665      1.00000
      3       0.9836      1.00000
      4       0.9836      1.00000
      5       2.5689      1.00000
      6       2.5689      1.00000
      7       2.7765      1.00000
      8       2.7833      1.00000
      9       4.3739     -0.00000
     10       4.3739     -0.00000
     11       7.1867      0.00000
     12       7.1867      0.00000
     13       7.4668      0.00000
     14       7.4669      0.00000
     15       7.6172      0.00000
     16       7.6176      0.00000
     17      11.7444      0.00000
     18      11.7932      0.00000
     19      11.9067      0.00000
     20      11.9155      0.00000
     21      11.9302      0.00000

 k-point     3 :       0.2857    0.0000    0.0000
  band No.  band energies     occupation 
      1      -7.6776      1.00000
      2      -7.6776      1.00000
      3      -1.0128      1.00000
      4      -1.0128      1.00000
      5       2.1556      1.00000
      6       2.1556      1.00000
      7       2.3730      1.00000
      8       2.3800      1.00000
      9       4.4528      0.00000
     10       4.4528      0.00000
     11       7.7613      0.00000
     12       7.7613      0.00000
     13       8.0076      0.00000
     14       8.0103      0.00000
     15       8.6580      0.00000
     16       8.6580      0.00000
     17      11.5002      0.00000
     18      11.5566      0.00000
     19      11.9111      0.00000
     20      11.9144      0.00000
     21      11.9654      0.00000

 k-point     4 :       0.4286    0.0000    0.0000
  band No.  band energies     occupation 
      1      -7.1390      1.00000
      2      -7.1390      1.00000
      3      -2.3761      1.00000
      4      -2.3761      1.00000
      5       1.8867      1.00000
      6       1.8867      1.00000
      7       2.1109      1.00000
      8       2.1137      1.00000
      9       4.2706     -0.00000
     10       4.2706     -0.00000
     11       7.8191      0.00000
     12       7.8191      0.00000
     13       8.0035      0.00000
     14       8.0041      0.00000
     15       9.8402      0.00000
     16       9.8403      0.00000
     17      11.7913      0.00000
     18      11.7957      0.00000
     19      13.2625      0.00000
     20      13.3253      0.00000
     21      13.3577      0.00000

 k-point     5 :      -0.4286    0.0000    0.0000
  band No.  band energies     occupation 
      1      -7.1390      1.00000
      2      -7.1390      1.00000
      3      -2.3761      1.00000
      4      -2.3761      1.00000
      5       1.8867      1.00000
      6       1.8867      1.00000
      7       2.1109      1.00000
      8       2.1137      1.00000
      9       4.2706     -0.00000
     10       4.2706     -0.00000
     11       7.8191      0.00000
     12       7.8192      0.00000
     13       8.0038      0.00000
     14       8.0038      0.00000
     15       9.8402      0.00000
     16       9.8410      0.00000
     17      11.7912      0.00000
     18      12.3610      0.00000
     19      13.2596      0.00000
     20      13.3116      0.00000
     21      13.3630      0.00000

 k-point     6 :      -0.2857    0.0000    0.0000
  band No.  band energies     occupation 
      1      -7.6776      1.00000
      2      -7.6776      1.00000
      3      -1.0128      1.00000
      4      -1.0128      1.00000
      5       2.1556      1.00000
      6       2.1556      1.00000
      7       2.3730      1.00000
      8       2.3800      1.00000
      9       4.4528      0.00000
     10       4.4528      0.00000
     11       7.7613      0.00000
     12       7.7614      0.00000
     13       8.0075      0.00000
     14       8.0104      0.00000
     15       8.6579      0.00000
     16       8.6580      0.00000
     17      11.5003      0.00000
     18      11.6439      0.00000
     19      11.9132      0.00000
     20      11.9135      0.00000
     21      11.9777      0.00000

 k-point     7 :      -0.1429    0.0000    0.0000
  band No.  band energies     occupation 
      1      -8.1665      1.00000
      2      -8.1665      1.00000
      3       0.9836      1.00000
      4       0.9836      1.00000
      5       2.5689      1.00000
      6       2.5689      1.00000
      7       2.7765      1.00000
      8       2.7833      1.00000
      9       4.3739     -0.00000
     10       4.3739     -0.00000
     11       7.1867      0.00000
     12       7.1867      0.00000
     13       7.4668      0.00000
     14       7.4668      0.00000
     15       7.6171      0.00000
     16       7.6177      0.00000
     17      11.7501      0.00000
     18      11.8506      0.00000
     19      11.9222      0.00000
     20      11.9244      0.00000
     21      12.4259      0.00000

 k-point     8 :       0.1429    0.1429    0.0000
  band No.  band energies     occupation 
      1      -8.1055      1.00000
      2      -8.1055      1.00000
      3       0.9411      1.00000
      4       0.9411      1.00000
      5       2.2256      1.00000
      6       2.2256      1.00000
      7       2.3532      1.00000
      8       2.3532      1.00000
      9       5.0502      0.00000
     10       5.0502      0.00000
     11       6.3235      0.00000
     12       6.3235      0.00000
     13       7.9441      0.00000
     14       7.9441      0.00000
     15       8.1603      0.00000
     16       8.1603      0.00000
     17      10.6449      0.00000
     18      10.6451      0.00000
     19      12.2817      0.00000
     20      12.2980      0.00000
     21      14.1141      0.00000

 k-point     9 :       0.2857    0.1429    0.0000
  band No.  band energies     occupation 
      1      -7.7154      1.00000
      2      -7.7130      1.00000
      3      -0.5526      1.00000
      4      -0.5524      1.00000
      5       1.7204      1.00000
      6       1.7462      1.00000
      7       1.8905      1.00000
      8       1.8936      1.00000
      9       5.4503      0.00000
     10       5.4593      0.00000
     11       6.5266      0.00000
     12       6.5797      0.00000
     13       8.4887      0.00000
     14       8.5196      0.00000
     15       8.7193      0.00000
     16       8.7359      0.00000
     17      10.6974      0.00000
     18      10.7029      0.00000
     19      12.9569      0.00000
     20      13.0108      0.00000
     21      13.4088      0.00000

 k-point    10 :       0.4286    0.1429    0.0000
  band No.  band energies     occupation 
      1      -7.1636      1.00000
      2      -7.1559      1.00000
      3      -2.0166      1.00000
      4      -2.0030      1.00000
      5       1.1892      1.00000
      6       1.2146      1.00000
      7       1.6537      1.00000
      8       1.6563      1.00000
      9       5.2961      0.00000
     10       5.2981      0.00000
     11       7.3184      0.00000
     12       7.3405      0.00000
     13       8.6904      0.00000
     14       8.6934      0.00000
     15       9.0900      0.00000
     16       9.1531      0.00000
     17      11.8407      0.00000
     18      11.9029      0.00000
     19      13.1116      0.00000
     20      13.6383      0.00000
     21      14.2189      0.00000

 k-point    11 :      -0.4286    0.1429    0.0000
  band No.  band energies     occupation 
      1      -6.9398      1.00000
      2      -6.9285      1.00000
      3      -2.4872      1.00000
      4      -2.4660      1.00000
      5       0.8808      1.00000
      6       0.8987      1.00000
      7       1.7673      1.00000
      8       1.7726      1.00000
      9       5.2396      0.00000
     10       5.2441      0.00000
     11       7.5173      0.00000
     12       7.5441      0.00000
     13       8.4276      0.00000
     14       8.4297      0.00000
     15      10.0409      0.00000
     16      10.0913      0.00000
     17      12.1540      0.00000
     18      12.3046      0.00000
     19      13.0725      0.00000
     20      13.1744      0.00000
     21      13.2239      0.00000

 k-point    12 :      -0.2857    0.1429    0.0000
  band No.  band energies     occupation 
      1      -7.3497      1.00000
      2      -7.3429      1.00000
      3      -1.5887      1.00000
      4      -1.5745      1.00000
      5       0.9677      1.00000
      6       0.9839      1.00000
      7       2.1548      1.00000
      8       2.1633      1.00000
      9       5.3280      0.00000
     10       5.3445      0.00000
     11       7.7748      0.00000
     12       7.7935      0.00000
     13       8.1465      0.00000
     14       8.1516      0.00000
     15       8.7948      0.00000
     16       8.8098      0.00000
     17      11.3787      0.00000
     18      11.4085      0.00000
     19      12.4600      0.00000
     20      12.5226      0.00000
     21      13.9031      0.00000

 k-point    13 :      -0.1429    0.1429    0.0000
  band No.  band energies     occupation 
      1      -7.8809      1.00000
      2      -7.8787      1.00000
      3      -0.0996      1.00000
      4      -0.0990      1.00000
      5       1.6134      1.00000
      6       1.6363      1.00000
      7       2.5941      1.00000
      8       2.6049      1.00000
      9       5.1390      0.00000
     10       5.1579      0.00000
     11       7.1687      0.00000
     12       7.3210      0.00000
     13       7.6251      0.00000
     14       7.6678      0.00000
     15       8.2815      0.00000
     16       8.3683      0.00000
     17      11.0372      0.00000
     18      11.0709      0.00000
     19      12.0015      0.00000
     20      12.0906      0.00000
     21      12.9215      0.00000

 k-point    14 :       0.2857    0.2857    0.0000
  band No.  band energies     occupation 
      1      -7.4403      1.00000
      2      -7.4403      1.00000
      3      -0.9878      1.00000
      4      -0.9878      1.00000
      5       1.3108      1.00000
      6       1.3108      1.00000
      7       1.3683      1.00000
      8       1.3683      1.00000
      9       5.3202      0.00000
     10       5.3202      0.00000
     11       5.9099      0.00000
     12       5.9099      0.00000
     13       9.7810      0.00000
     14       9.7810      0.00000
     15       9.9529      0.00000
     16       9.9529      0.00000
     17      10.1197      0.00000
     18      10.1198      0.00000
     19      13.7010      0.00000
     20      13.7291      0.00000
     21      15.0651      0.00000

 k-point    15 :       0.4286    0.2857    0.0000
  band No.  band energies     occupation 
      1      -6.9733      1.00000
      2      -6.9648      1.00000
      3      -1.9413      1.00000
      4      -1.9269      1.00000
      5       0.6351      1.00000
      6       0.6594      1.00000
      7       1.0974      1.00000
      8       1.0992      1.00000
      9       5.3703      0.00000
     10       5.3862      0.00000
     11       6.2771      0.00000
     12       6.2910      0.00000
     13       9.4570      0.00000
     14       9.5287      0.00000
     15      10.3067      0.00000
     16      10.3254      0.00000
     17      12.0040      0.00000
     18      12.0307      0.00000
     19      14.4671      0.00000
     20      14.7343      0.00000
     21      15.5279      0.00000

 k-point    16 :      -0.4286    0.2857    0.0000
  band No.  band energies     occupation 
      1      -6.6647      1.00000
      2      -6.6451      1.00000
      3      -2.4571      1.00000
      4      -2.4182      1.00000
      5      -0.0693      1.00000
      6      -0.0549      1.00000
      7       1.2139      1.00000
      8       1.2174      1.00000
      9       5.4886      0.00000
     10       5.4955      0.00000
     11       7.6369      0.00000
     12       7.7150      0.00000
     13       9.4811      0.00000
     14       9.6549      0.00000
     15       9.8979      0.00000
     16       9.9215      0.00000
     17      11.4042      0.00000
     18      11.5356      0.00000
     19      13.2437      0.00000
     20      13.2790      0.00000
     21      15.4686      0.00000

[...]
 -0.000   0.000  -0.000   0.000   3.919   0.000  -0.000   0.000  -0.000   0.093   6.743   0.000  -0.000   0.000  -0.000   0.164
 -0.000   0.000  -0.000   0.000  -0.000  -0.000   3.919   0.000  -0.000  -0.000  -0.000  -0.000   6.743   0.000  -0.000  -0.000
 -0.000   0.000  -0.000   0.000  -0.000  -0.093  -0.000   0.000   3.919   0.000  -0.000  -0.164  -0.000   0.000   6.743   0.000
 -0.000   0.000  -0.000   0.000   6.743   0.000  -0.000   0.000  -0.000   0.164  11.653   0.000  -0.000   0.000  -0.000   0.289
 -0.000   0.000  -0.000   0.000  -0.000  -0.000   6.743   0.000  -0.000  -0.000  -0.000  -0.000  11.653   0.000  -0.000  -0.000
 -0.000   0.000  -0.000   0.000  -0.000  -0.164  -0.000   0.000   6.743   0.000  -0.000  -0.289  -0.000   0.000  11.653   0.000
 -0.000   0.000  -0.000   0.000  -0.000   0.000  -0.005   0.000  -0.000   0.000  -0.000   0.000  -0.007   0.000  -0.000   0.000
 -0.000   0.000  -0.000   0.000   0.000   0.000  -0.000   0.000  -0.005   0.000   0.000   0.000  -0.000   0.000  -0.007   0.000
 -0.000   0.000  -0.000   0.000   0.000   0.000  -0.000   0.000   0.000   0.000   0.000   0.000  -0.000   0.000   0.000   0.000
 -0.000   0.000  -0.000   0.000  -0.005   0.000  -0.000   0.000  -0.000   0.000  -0.007   0.000  -0.000   0.000  -0.000   0.000
  0.000   0.000   0.000   0.000   0.000   0.000  -0.000   0.000  -0.000   0.000   0.000   0.000  -0.000   0.000  -0.000   0.000
 pseudopotential strength for first ion, spin component:           2
  0.000  -0.000   0.000  -0.000  -0.000   0.000  -0.000  -0.000  -0.000  -0.000  -0.000   0.000  -0.000  -0.000  -0.000  -0.000
  0.000  -0.000   0.000  -0.000  -0.000   0.000  -0.000  -0.000  -0.000  -0.000  -0.000   0.000  -0.000  -0.000  -0.000  -0.000
 -0.000   0.000  -0.000   0.000   0.000  -0.000   0.000  -0.093   0.000   0.000   0.000  -0.000   0.000  -0.164   0.000   0.000
 -0.000  -0.000  -0.000  -0.000   0.000   0.093  -0.000  -0.000  -0.093   0.000   0.000   0.164  -0.000  -0.000  -0.164   0.000
 -0.000  -0.000  -0.000  -0.000   0.000   0.000   0.093   0.000   0.000   0.000   0.000   0.000   0.164   0.000   0.000   0.000
 -0.000   0.000  -0.000   0.000   0.000  -0.000   0.000  -0.164   0.000   0.000   0.000  -0.000   0.000  -0.289   0.000   0.000
 -0.000  -0.000  -0.000  -0.000   0.000   0.164  -0.000  -0.000  -0.164   0.000   0.000   0.289  -0.000  -0.000  -0.289   0.000
 -0.000  -0.000  -0.000  -0.000   0.000   0.000   0.164   0.000   0.000   0.000   0.000   0.000   0.289   0.000   0.000   0.000
  0.000   0.000   0.000   0.000  -0.000  -0.000  -0.000  -0.000  -0.000  -0.000  -0.000  -0.000  -0.000  -0.000  -0.000  -0.000
  0.000   0.000   0.000   0.000  -0.000  -0.000  -0.000   0.000  -0.000  -0.000  -0.000  -0.000  -0.000   0.000  -0.000  -0.000
 -0.000  -0.000  -0.000  -0.000   0.000   0.000  -0.000   0.000   0.000   0.000   0.000   0.000  -0.000   0.000   0.000   0.000
  0.000   0.000   0.000   0.000  -0.000  -0.000   0.000  -0.000  -0.000  -0.000  -0.000  -0.000   0.000  -0.000  -0.000  -0.000
 -0.000   0.000  -0.000   0.000   0.000  -0.000  -0.000   0.000   0.000  -0.000   0.000  -0.000  -0.000   0.000   0.000  -0.000
 pseudopotential strength for first ion, spin component:           3
  0.000   0.000   0.000   0.000  -0.000  -0.000  -0.000   0.000  -0.000   0.000  -0.000  -0.000  -0.000   0.000  -0.000   0.000
  0.000   0.000   0.000   0.000  -0.000  -0.000  -0.000   0.000  -0.000   0.000  -0.000  -0.000  -0.000   0.000  -0.000   0.000
 -0.000  -0.000  -0.000  -0.000   0.000   0.000   0.000  -0.093   0.000  -0.000   0.000   0.000   0.000  -0.164   0.000  -0.000
 -0.000   0.000  -0.000   0.000   0.000   0.093  -0.000   0.000   0.093  -0.000   0.000   0.164  -0.000   0.000   0.164  -0.000
 -0.000   0.000  -0.000   0.000   0.000  -0.000  -0.093  -0.000   0.000  -0.000   0.000  -0.000  -0.164  -0.000   0.000  -0.000
 -0.000  -0.000  -0.000  -0.000   0.000   0.000   0.000  -0.164   0.000  -0.000   0.000   0.000   0.000  -0.289   0.000  -0.000
 -0.000   0.000  -0.000   0.000   0.000   0.164  -0.000   0.000   0.164  -0.000   0.000   0.289  -0.000   0.000   0.289  -0.000
 -0.000   0.000  -0.000   0.000   0.000  -0.000  -0.164  -0.000   0.000  -0.000   0.000  -0.000  -0.289  -0.000   0.000  -0.000
  0.000  -0.000   0.000  -0.000  -0.000   0.000  -0.000   0.000  -0.000   0.000  -0.000   0.000  -0.000   0.000  -0.000   0.000
  0.000  -0.000   0.000  -0.000  -0.000   0.000  -0.000  -0.000  -0.000   0.000  -0.000   0.000  -0.000  -0.000  -0.000   0.000
 -0.000   0.000  -0.000   0.000   0.000  -0.000  -0.000  -0.000   0.000  -0.000   0.000  -0.000  -0.000  -0.000   0.000  -0.000
  0.000  -0.000   0.000  -0.000  -0.000   0.000   0.000   0.000  -0.000   0.000  -0.000   0.000   0.000   0.000  -0.000   0.000
 -0.000  -0.000  -0.000  -0.000   0.000   0.000  -0.000  -0.000   0.000   0.000   0.000   0.000  -0.000  -0.000   0.000   0.000
 pseudopotential strength for first ion, spin component:           4
 21.510   0.000  25.734   0.000  -0.000   0.000  -0.000   0.000  -0.000   0.000  -0.000   0.000  -0.000   0.000  -0.000   0.000
 25.734   0.000  30.801   0.000  -0.000   0.000  -0.000   0.000  -0.000   0.000  -0.000   0.000  -0.000   0.000  -0.000   0.000
 -0.000   0.000  -0.000   0.000   3.919   0.000  -0.000   0.000  -0.000  -0.093   6.743   0.000  -0.000   0.000  -0.000  -0.164
 -0.000   0.000  -0.000   0.000  -0.000  -0.000   3.919   0.000  -0.000  -0.000  -0.000  -0.000   6.743   0.000  -0.000  -0.000
 -0.000   0.000  -0.000   0.000  -0.000   0.093  -0.000   0.000   3.919   0.000  -0.000   0.164  -0.000   0.000   6.743   0.000
 -0.000   0.000  -0.000   0.000   6.743   0.000  -0.000   0.000  -0.000  -0.164  11.653   0.000  -0.000   0.000  -0.000  -0.289
 -0.000   0.000  -0.000   0.000  -0.000  -0.000   6.743   0.000  -0.000  -0.000  -0.000  -0.000  11.653   0.000  -0.000  -0.000
 -0.000   0.000  -0.000   0.000  -0.000   0.164  -0.000   0.000   6.743   0.000  -0.000   0.289  -0.000   0.000  11.653   0.000
 -0.000   0.000  -0.000   0.000  -0.000   0.000  -0.005   0.000  -0.000   0.000  -0.000   0.000  -0.007   0.000  -0.000   0.000
 -0.000   0.000  -0.000   0.000  -0.000   0.000  -0.000   0.000  -0.005   0.000  -0.000   0.000  -0.000   0.000  -0.007   0.000
  0.000   0.000   0.000   0.000   0.000   0.000  -0.000   0.000   0.000   0.000   0.000   0.000  -0.000   0.000   0.000   0.000
 -0.000   0.000  -0.000   0.000  -0.005   0.000  -0.000   0.000   0.000   0.000  -0.007   0.000  -0.000   0.000   0.000   0.000
 -0.000   0.000  -0.000   0.000   0.000   0.000   0.000   0.000  -0.000   0.000   0.000   0.000   0.000   0.000  -0.000   0.000
 total augmentation occupancy for first ion, spin component:           1
  6.737  -3.415  -0.000   0.000   0.000   0.000  -0.000  -0.000  -0.000   0.000   0.000   0.000   0.000
 -3.415   1.942   0.000  -0.000  -0.000  -0.000   0.000  -0.000   0.000   0.000   0.000  -0.000   0.000
 -0.000  -0.000   3.031   0.000   0.000  -0.855   0.000   0.000   0.000   0.000  -0.000  -0.427  -0.000
  0.000  -0.000   0.000   3.031   0.000   0.000  -0.855   0.000  -0.427  -0.000   0.000   0.000  -0.000
  0.000   0.000   0.000  -0.000   3.031   0.000   0.000  -0.855   0.000  -0.427   0.000   0.000  -0.000
  0.000   0.000  -0.855   0.000   0.000   0.257  -0.000   0.000  -0.000   0.000  -0.000   0.118   0.000
 -0.000   0.000  -0.000  -0.855   0.000   0.000   0.257  -0.000   0.118  -0.000   0.000   0.000   0.000
 -0.000   0.000   0.000  -0.000  -0.855  -0.000   0.000   0.257   0.000   0.118   0.000  -0.000   0.000
 -0.000   0.000   0.000  -0.427   0.000   0.000   0.118  -0.000   0.104  -0.000   0.000   0.000  -0.000
  0.000   0.000   0.000  -0.000  -0.427   0.000   0.000   0.118   0.000   0.104   0.000   0.000  -0.000
  0.000   0.000  -0.000   0.000   0.000   0.000   0.000   0.000   0.000   0.000   0.029   0.000  -0.000
  0.000   0.000  -0.427   0.000  -0.000   0.118  -0.000   0.000   0.000  -0.000  -0.000   0.104  -0.000
  0.000   0.000  -0.000   0.000  -0.000   0.000   0.000   0.000   0.000   0.000   0.000   0.000   0.029
 total augmentation occupancy for first ion, spin component:           2
  0.000   0.000   0.000  -0.000   0.000  -0.000  -0.000   0.000   0.000   0.000  -0.000  -0.000   0.000
  0.000   0.000  -0.000   0.000   0.000   0.000   0.000   0.000   0.000   0.000  -0.000  -0.000   0.000
  0.000  -0.000  -0.000  -0.000   0.000   0.000  -0.000  -0.000   0.000   0.000   0.000   0.000   0.000
 -0.000   0.000   0.000  -0.000  -0.000   0.000  -0.000  -0.000   0.000  -0.000  -0.000  -0.000  -0.000
  0.000   0.000   0.000  -0.000   0.000  -0.000   0.000   0.000  -0.000   0.000   0.000  -0.000   0.000
  0.000   0.000   0.000   0.000   0.000  -0.000  -0.000   0.000   0.000   0.000   0.000  -0.000   0.000
  0.000   0.000  -0.000  -0.000  -0.000   0.000   0.000   0.000  -0.000  -0.000   0.000  -0.000  -0.000
  0.000   0.000   0.000  -0.000   0.000   0.000  -0.000  -0.000   0.000   0.000  -0.000   0.000  -0.000
  0.000  -0.000   0.000  -0.000  -0.000   0.000  -0.000   0.000  -0.000  -0.000  -0.000   0.000   0.000
  0.000   0.000   0.000   0.000   0.000  -0.000  -0.000   0.000  -0.000   0.000  -0.000   0.000  -0.000
 -0.000   0.000   0.000   0.000   0.000   0.000   0.000  -0.000  -0.000  -0.000  -0.000  -0.000  -0.000
 -0.000   0.000   0.000  -0.000   0.000  -0.000  -0.000   0.000  -0.000   0.000   0.000  -0.000  -0.000
 -0.000   0.000  -0.000  -0.000   0.000   0.000  -0.000  -0.000   0.000  -0.000   0.000   0.000   0.000
 total augmentation occupancy for first ion, spin component:           3
  0.000   0.000   0.000  -0.000  -0.000   0.000  -0.000  -0.000  -0.000  -0.000   0.000   0.000   0.000
 -0.000   0.000   0.000  -0.000  -0.000   0.000   0.000   0.000   0.000   0.000   0.000   0.000   0.000
  0.000   0.000   0.000  -0.000   0.000   0.000   0.000   0.000   0.000  -0.000  -0.000   0.000   0.000
  0.000   0.000   0.000  -0.000  -0.000   0.000   0.000  -0.000   0.000   0.000  -0.000  -0.000  -0.000
  0.000   0.000   0.000   0.000  -0.000  -0.000   0.000   0.000  -0.000   0.000  -0.000   0.000   0.000
  0.000   0.000   0.000   0.000   0.000   0.000   0.000  -0.000   0.000   0.000   0.000   0.000  -0.000
  0.000  -0.000   0.000   0.000   0.000  -0.000  -0.000  -0.000  -0.000   0.000   0.000   0.000  -0.000
 -0.000  -0.000   0.000  -0.000  -0.000  -0.000   0.000  -0.000  -0.000   0.000   0.000  -0.000   0.000
  0.000   0.000  -0.000   0.000  -0.000   0.000  -0.000  -0.000   0.000  -0.000   0.000   0.000   0.000
 -0.000   0.000   0.000   0.000   0.000   0.000   0.000   0.000   0.000   0.000  -0.000   0.000   0.000
  0.000  -0.000  -0.000  -0.000  -0.000   0.000   0.000  -0.000   0.000  -0.000   0.000   0.000   0.000
  0.000   0.000  -0.000   0.000   0.000   0.000  -0.000   0.000  -0.000   0.000   0.000   0.000  -0.000
 -0.000   0.000   0.000  -0.000   0.000  -0.000  -0.000   0.000  -0.000  -0.000  -0.000  -0.000  -0.000
 total augmentation occupancy for first ion, spin component:           4
  0.000  -0.000   0.000   0.000   0.000   0.000   0.000  -0.000   0.000  -0.000  -0.000   0.000   0.000
  0.000  -0.000   0.000   0.000   0.000   0.000   0.000  -0.000   0.000   0.000  -0.000  -0.000   0.000
  0.000   0.000   0.000   0.000   0.000   0.000   0.000   0.000   0.000  -0.000  -0.000  -0.000   0.000
  0.000   0.000  -0.000   0.000  -0.000   0.000   0.000  -0.000   0.000  -0.000   0.000   0.000  -0.000
  0.000   0.000  -0.000  -0.000   0.000  -0.000   0.000   0.000   0.000   0.000   0.000   0.000  -0.000
  0.000  -0.000   0.000   0.000  -0.000   0.000   0.000   0.000   0.000  -0.000  -0.000   0.000   0.000
  0.000   0.000   0.000  -0.000   0.000   0.000   0.000   0.000   0.000   0.000   0.000   0.000   0.000
 -0.000   0.000   0.000  -0.000   0.000  -0.000   0.000  -0.000   0.000  -0.000  -0.000   0.000   0.000
  0.000   0.000  -0.000  -0.000  -0.000   0.000   0.000   0.000  -0.000   0.000   0.000  -0.000   0.000
  0.000  -0.000  -0.000   0.000   0.000  -0.000   0.000  -0.000  -0.000  -0.000   0.000  -0.000   0.000
 -0.000   0.000   0.000   0.000  -0.000   0.000   0.000  -0.000   0.000   0.000   0.000   0.000  -0.000
  0.000   0.000  -0.000   0.000   0.000   0.000   0.000   0.000  -0.000   0.000   0.000   0.000   0.000
 -0.000   0.000   0.000  -0.000  -0.000   0.000   0.000   0.000   0.000   0.000   0.000  -0.000   0.000


------------------------ aborting loop because EDIFF is reached ----------------------------------------


    FORLOC:  cpu time    0.0013: real time    0.0013
    FORNL :  cpu time    0.0495: real time    0.0495
    STRESS:  cpu time    0.2048: real time    0.2048
    FORCOR:  cpu time    0.0442: real time    0.0442
    OFIELD:  cpu time    0.0003: real time    0.0003

  FORCE on cell =-STRESS in cart. coord.  units (eV):
  Direction    XX          YY          ZZ          XY          YZ          ZX
  --------------------------------------------------------------------------------------
  Alpha Z     6.67625     6.67625     6.67625
  Ewald     -71.28251   -71.28251   -71.28251     0.00000     0.00000     0.00000
  Hartree     8.97092     8.97092     8.97092     0.00000     0.00000     0.00000
  E(xc)     -31.75446   -31.75446   -31.75446    -0.00000    -0.00000    -0.00000
  Local     -34.76886   -34.76886   -34.76886     0.00002     0.00002     0.00002
  n-local    68.83689    69.59639    65.59265     1.72934    -0.60973     0.21284
  augment    -8.33824    -8.33824    -8.33824    -0.00002    -0.00002    -0.00002
  Kinetic    64.73368    64.33454    59.70396     3.67567    -0.92768     0.54165
  Fock        0.00000     0.00000     0.00000     0.00000     0.00000     0.00000
  -------------------------------------------------------------------------------------
  Total       0.43581     0.43581     0.43581    -0.00000     0.00000     0.00000
  in kB      12.56010    12.56010    12.56010    -0.00000     0.00000     0.00000
  external pressure =       12.56 kB  Pullay stress =        0.00 kB


 VOLUME and BASIS-vectors are now :
 -----------------------------------------------------------------------------
  energy-cutoff  :      400.00
  volume of cell :       55.59
      direct lattice vectors                 reciprocal lattice vectors
     0.000000000  3.029200000  3.029200000    -0.165060082  0.165060082  0.165060082
     3.029200000  0.000000000  3.029200000     0.165060082 -0.165060082  0.165060082
     3.029200000  3.029200000  0.000000000     0.165060082  0.165060082 -0.165060082

  length of vectors
     4.283935723  4.283935723  4.283935723     0.285892448  0.285892448  0.285892448


 FORCES acting on ions:
    Electron-Ion                     Ewald-Force                    Non-Local-Force
 -----------------------------------------------------------------------------------------------
   0.423E-06 0.423E-06 0.423E-06   -.437E-14 -.349E-14 -.380E-14   -.555E-16 -.971E-16 -.902E-16
   -.326E-06 -.326E-06 -.326E-06   0.437E-14 0.340E-14 0.349E-14   -.555E-16 -.416E-16 -.278E-16
 -----------------------------------------------------------------------------------------------
   0.127E-06 0.127E-06 0.127E-06   -.623E-17 -.883E-16 -.308E-15   -.111E-15 -.139E-15 -.118E-15
 
 
 POSITION                                       TOTAL-FORCE (eV/Angst)
 -----------------------------------------------------------------------------------
      0.00000      0.00000      0.00000         0.000000      0.000000      0.000000
      4.54380      4.54380      4.54380        -0.000000     -0.000000     -0.000000
 -----------------------------------------------------------------------------------
    total drift:                                0.000000      0.000000      0.000000


--------------------------------------------------------------------------------------------------------



  FREE ENERGIE OF THE ION-ELECTRON SYSTEM (eV)
  ---------------------------------------------------
  free  energy   TOTEN  =       -11.30878812 eV

  energy  without entropy=      -11.30880537  energy(sigma->0) =      -11.30879387
 


--------------------------------------------------------------------------------------------------------


    POTLOK:  cpu time    0.0642: real time    0.0642


--------------------------------------------------------------------------------------------------------


 writing wavefunctions
     LOOP+:  cpu time    4.6312: real time    5.0337
    4ORBIT:  cpu time    0.0000: real time    0.0000

 Spin-Orbit-Coupling matrix elements

 Ion:    1  E_soc:     -0.0331335
 l=   1
     0.0000000    -0.0053356    -0.0053356
    -0.0053356     0.0000000    -0.0053356
    -0.0053356    -0.0053356     0.0000000
 l=   2
     0.0000000    -0.0000719     0.0000000    -0.0000719    -0.0001148
    -0.0000719     0.0000000    -0.0000861    -0.0000719    -0.0000287
     0.0000000    -0.0000861     0.0000000    -0.0000861     0.0000000
    -0.0000719    -0.0000719    -0.0000861     0.0000000    -0.0000287
    -0.0001148    -0.0000287     0.0000000    -0.0000287     0.0000000
 l=   3
     0.0000000     0.0000000     0.0000000     0.0000000     0.0000000     0.0000000     0.0000000
     0.0000000     0.0000000     0.0000000     0.0000000     0.0000000     0.0000000     0.0000000
     0.0000000     0.0000000     0.0000000     0.0000000     0.0000000     0.0000000     0.0000000
     0.0000000     0.0000000     0.0000000     0.0000000     0.0000000     0.0000000     0.0000000
     0.0000000     0.0000000     0.0000000     0.0000000     0.0000000     0.0000000     0.0000000
     0.0000000     0.0000000     0.0000000     0.0000000     0.0000000     0.0000000     0.0000000
     0.0000000     0.0000000     0.0000000     0.0000000     0.0000000     0.0000000     0.0000000

 Ion:    2  E_soc:     -0.0245836
 l=   1
     0.0000000    -0.0040985    -0.0040985
    -0.0040985     0.0000000    -0.0040985
    -0.0040985    -0.0040985     0.0000000
 l=   2
     0.0000000     0.0000004     0.0000000     0.0000004     0.0000008
     0.0000004     0.0000000     0.0000006     0.0000004     0.0000002
     0.0000000     0.0000006     0.0000000     0.0000006     0.0000000
     0.0000004     0.0000004     0.0000006     0.0000000     0.0000002
     0.0000008     0.0000002     0.0000000     0.0000002     0.0000000
 l=   3
     0.0000000     0.0000000     0.0000000     0.0000000     0.0000000     0.0000000     0.0000000
     0.0000000     0.0000000     0.0000000     0.0000000     0.0000000     0.0000000     0.0000000
     0.0000000     0.0000000     0.0000000     0.0000000     0.0000000     0.0000000     0.0000000
     0.0000000     0.0000000     0.0000000     0.0000000     0.0000000     0.0000000     0.0000000
     0.0000000     0.0000000     0.0000000     0.0000000     0.0000000     0.0000000     0.0000000
     0.0000000     0.0000000     0.0000000     0.0000000     0.0000000     0.0000000     0.0000000
     0.0000000     0.0000000     0.0000000     0.0000000     0.0000000     0.0000000     0.0000000

 total amount of memory used by VASP MPI-rank0    44646. kBytes
=======================================================================

   base      :      30000. kBytes
   nonl-proj :       2220. kBytes
   fftplans  :       1050. kBytes
   grid      :       3907. kBytes
   one-center:         32. kBytes
   wavefun   :       7437. kBytes
 
  
  
 General timing and accounting informations for this job:
 ========================================================
  
                  Total CPU time used (sec):        7.259
                            User time (sec):        6.806
                          System time (sec):        0.454
                         Elapsed time (sec):        8.548
  
                   Maximum memory used (kb):      152960.
                   Average memory used (kb):           0.
  
                          Minor page faults:        25975
                          Major page faults:            0
                 Voluntary context switches:         2510
