<?xml version="1.0" encoding="ISO-8859-1"?>
<modeling>
 <generator>
  <i name="program" type="string">vasp </i>
  <i name="version" type="string">5.4.4.18Apr17-6-g9f103f2a35  </i>
  <i name="subversion" type="string">(build Sep 10 2021 22:26:18) complex            parallel </i>
  <i name="platform" type="string">LinuxIFC </i>
  <i name="date" type="string">2022 02 17 </i>
  <i name="time" type="string">16:05:28 </i>
 </generator>
 <incar>
  <i type="int" name="ISTART">     0</i>
  <i type="string" name="PREC">n</i>
  <i type="string" name="ALGO"> D</i>
  <i type="logical" name="LSORBIT"> T  </i>
  <v name="SAXIS">      0.00000000      0.00000000      1.00000000</v>
  <i type="int" name="ISPIN">     2</i>
  <i name="BMIX">      3.00000000</i>
  <i name="AMIN">      0.01000000</i>
  <i type="int" name="ICHARG">     2</i>
  <i name="EDIFF">      0.00001000</i>
  <i name="ENCUT">    400.00000000</i>
  <i type="int" name="NBANDS">    21</i>
  <v name="MAGMOM">      0.00000000      0.00000000      0.00000000      0.00000000      0.00000000      0.00000000</v>
  <i name="SIGMA">      0.05000000</i>
  <i type="int" name="LMAXMIX">     4</i>
  <v type="int" name="KPOINT_BSE">    -1     0     0     0</v>
  <i type="string" name="GGA"> PE</i>
  <i type="logical" name="LDAU"> T  </i>
  <v type="int" name="LDAUL">     1     1</v>
  <v name="LDAUU">     -0.34900000     -5.68000000</v>
  <v name="LDAUJ">      0.00000000      0.00000000</v>
 </incar>
 <structure name="primitive_cell" >
  <crystal>
   <varray name="basis" >
    <v>       0.00000000       3.02920000       3.02920000 </v>
    <v>       3.02920000       0.00000000       3.02920000 </v>
    <v>       3.02920000       3.02920000       0.00000000 </v>
   </varray>
   <i name="volume">     55.59219731 </i>
   <varray name="rec_basis" >
    <v>      -0.16506008       0.16506008       0.16506008 </v>
    <v>       0.16506008      -0.16506008       0.16506008 </v>
    <v>       0.16506008       0.16506008      -0.16506008 </v>
   </varray>
  </crystal>
  <varray name="positions" >
   <v>       0.00000000       0.00000000       0.00000000 </v>
   <v>      -0.25000000      -0.25000000      -0.25000000 </v>
  </varray>
 </structure>
 <varray name="primitive_index" >
  <v type="int" >        1 </v>
  <v type="int" >        2 </v>
 </varray>
 <kpoints>
  <generation param="Gamma">
   <v type="int" name="divisions">       7        7        7 </v>
   <v name="usershift">      0.00000000       0.00000000       0.00000000 </v>
   <v name="genvec1">      0.14285714       0.00000000       0.00000000 </v>
   <v name="genvec2">      0.00000000       0.14285714       0.00000000 </v>
   <v name="genvec3">      0.00000000       0.00000000       0.14285714 </v>
   <v name="shift">      0.00000000       0.00000000       0.00000000 </v>
  </generation>
  <varray name="kpointlist" >
   <v>       0.00000000       0.00000000       0.00000000 </v>
   <v>       0.14285714       0.00000000       0.00000000 </v>
   <v>       0.28571429       0.00000000       0.00000000 </v>
   <v>       0.42857143       0.00000000       0.00000000 </v>
   <v>      -0.42857143       0.00000000       0.00000000 </v>
   <v>      -0.28571429       0.00000000       0.00000000 </v>
   <v>      -0.14285714       0.00000000       0.00000000 </v>
   <v>       0.14285714       0.14285714       0.00000000 </v>
   <v>       0.28571429       0.14285714       0.00000000 </v>
   <v>       0.42857143       0.14285714       0.00000000 </v>
   <v>      -0.42857143       0.14285714       0.00000000 </v>
   <v>      -0.28571429       0.14285714       0.00000000 </v>
   <v>      -0.14285714       0.14285714       0.00000000 </v>
   <v>       0.28571429       0.28571429       0.00000000 </v>
   <v>       0.42857143       0.28571429       0.00000000 </v>
   <v>      -0.42857143       0.28571429       0.00000000 </v>
   <v>      -0.28571429       0.28571429       0.00000000 </v>
   <v>      -0.14285714       0.28571429       0.00000000 </v>
   <v>       0.42857143       0.42857143       0.00000000 </v>
   <v>      -0.42857143       0.42857143       0.00000000 </v>
   <v>      -0.28571429       0.42857143       0.00000000 </v>
   <v>      -0.14285714       0.42857143       0.00000000 </v>
   <v>      -0.28571429      -0.42857143       0.00000000 </v>
   <v>      -0.14285714      -0.42857143       0.00000000 </v>
   <v>      -0.14285714      -0.28571429       0.00000000 </v>
   <v>       0.42857143       0.28571429       0.14285714 </v>
   <v>      -0.42857143       0.28571429       0.14285714 </v>
   <v>      -0.28571429       0.28571429       0.14285714 </v>
   <v>      -0.42857143       0.42857143       0.14285714 </v>
   <v>      -0.28571429       0.42857143       0.14285714 </v>
  </varray>
  <varray name="weights" >
   <v>       0.00291545 </v>
   <v>       0.01166181 </v>
   <v>       0.01166181 </v>
   <v>       0.01166181 </v>
   <v>       0.01166181 </v>
   <v>       0.01166181 </v>
   <v>       0.01166181 </v>
   <v>       0.01749271 </v>
   <v>       0.03498542 </v>
   <v>       0.03498542 </v>
   <v>       0.03498542 </v>
   <v>       0.03498542 </v>
   <v>       0.03498542 </v>
   <v>       0.01749271 </v>
   <v>       0.03498542 </v>
   <v>       0.03498542 </v>
   <v>       0.03498542 </v>
   <v>       0.03498542 </v>
   <v>       0.01749271 </v>
   <v>       0.03498542 </v>
   <v>       0.03498542 </v>
   <v>       0.03498542 </v>
   <v>       0.03498542 </v>
   <v>       0.03498542 </v>
   <v>       0.03498542 </v>
   <v>       0.06997085 </v>
   <v>       0.06997085 </v>
   <v>       0.06997085 </v>
   <v>       0.06997085 </v>
   <v>       0.06997085 </v>
  </varray>
 </kpoints>
 <parameters>
  <separator name="general" >
   <i type="string" name="SYSTEM">unknown system</i>
   <i type="logical" name="LCOMPAT"> F  </i>
  </separator>
  <separator name="electronic" >
   <i type="string" name="PREC">n</i>
   <i name="ENMAX">    400.00000000</i>
   <i name="ENAUG">    462.75800000</i>
   <i name="EDIFF">      0.00001000</i>
   <i type="int" name="IALGO">    53</i>
   <i type="int" name="IWAVPR">    10</i>
   <i type="int" name="NBANDS">    21</i>
   <i name="NELECT">      8.00000000</i>
   <i type="int" name="TURBO">     0</i>
   <i type="int" name="IRESTART">     0</i>
   <i type="int" name="NREBOOT">     0</i>
   <i type="int" name="NMIN">     0</i>
   <i name="EREF">      0.00000000</i>
   <separator name="electronic smearing" >
    <i type="int" name="ISMEAR">     1</i>
    <i name="SIGMA">      0.05000000</i>
    <i name="KSPACING">      0.50000000</i>
    <i type="logical" name="KGAMMA"> T  </i>
   </separator>
   <separator name="electronic projectors" >
    <i type="logical" name="LREAL"> F  </i>
    <v name="ROPT">      0.00000000      0.00000000</v>
    <i type="int" name="LMAXPAW">  -100</i>
    <i type="int" name="LMAXMIX">     4</i>
    <i type="logical" name="NLSPLINE"> F  </i>
   </separator>
   <separator name="electronic startup" >
    <i type="int" name="ISTART">     0</i>
    <i type="int" name="ICHARG">     2</i>
    <i type="int" name="INIWAV">     1</i>
   </separator>
   <separator name="electronic spin" >
    <i type="int" name="ISPIN">     1</i>
    <i type="logical" name="LNONCOLLINEAR"> T  </i>
    <v name="MAGMOM">      0.00000000      0.00000000      0.00000000      0.00000000      0.00000000      0.00000000</v>
    <i name="NUPDOWN">     -1.00000000</i>
    <i type="logical" name="LSORBIT"> T  </i>
    <v name="SAXIS">      0.00000000      0.00000000      1.00000000</v>
    <i type="logical" name="LSPIRAL"> F  </i>
    <v name="QSPIRAL">      0.00000000      0.00000000      0.00000000</v>
    <i type="logical" name="LZEROZ"> F  </i>
   </separator>
   <separator name="electronic exchange-correlation" >
    <i type="logical" name="LASPH"> F  </i>
    <i type="logical" name="LMETAGGA"> F  </i>
   </separator>
   <separator name="electronic convergence" >
    <i type="int" name="NELM">    60</i>
    <i type="int" name="NELMDL">    -5</i>
    <i type="int" name="NELMIN">     2</i>
    <i name="ENINI">    400.00000000</i>
    <separator name="electronic convergence detail" >
     <i type="logical" name="LDIAG"> T  </i>
     <i type="logical" name="LSUBROT"> F  </i>
     <i name="WEIMIN">      0.00000000</i>
     <i name="EBREAK">      0.00000012</i>
     <i name="DEPER">      0.30000000</i>
     <i type="int" name="NRMM">     4</i>
     <i name="TIME">      0.40000000</i>
    </separator>
   </separator>
   <separator name="electronic mixer" >
    <i name="AMIX">      0.40000000</i>
    <i name="BMIX">      3.00000000</i>
    <i name="AMIN">      0.01000000</i>
    <i name="AMIX_MAG">      1.60000000</i>
    <i name="BMIX_MAG">      3.00000000</i>
    <separator name="electronic mixer details" >
     <i type="int" name="IMIX">     4</i>
     <i type="logical" name="MIXFIRST"> F  </i>
     <i type="int" name="MAXMIX">   -45</i>
     <i name="WC">    100.00000000</i>
     <i type="int" name="INIMIX">     1</i>
     <i type="int" name="MIXPRE">     1</i>
     <i type="int" name="MREMOVE">     5</i>
    </separator>
   </separator>
   <separator name="electronic dipolcorrection" >
    <i type="logical" name="LDIPOL"> F  </i>
    <i type="logical" name="LMONO"> F  </i>
    <i type="int" name="IDIPOL">     0</i>
    <i name="EPSILON">      1.00000000</i>
    <v name="DIPOL">   -100.00000000   -100.00000000   -100.00000000</v>
    <i name="EFIELD">      0.00000000</i>
   </separator>
  </separator>
  <separator name="grids" >
   <i type="int" name="NGX">    24</i>
   <i type="int" name="NGY">    24</i>
   <i type="int" name="NGZ">    24</i>
   <i type="int" name="NGXF">    48</i>
   <i type="int" name="NGYF">    48</i>
   <i type="int" name="NGZF">    48</i>
   <i type="logical" name="ADDGRID"> F  </i>
  </separator>
  <separator name="ionic" >
   <i type="int" name="NSW">     0</i>
   <i type="int" name="IBRION">    -1</i>
   <i type="int" name="MDALGO">     0</i>
   <i type="int" name="ISIF">     2</i>
   <i name="PSTRESS">      0.00000000</i>
   <i name="EDIFFG">      0.00010000</i>
   <i type="int" name="NFREE">     0</i>
   <i name="POTIM">      0.50000000</i>
   <i name="SMASS">     -3.00000000</i>
   <i name="SCALEE">      1.00000000</i>
  </separator>
  <separator name="ionic md" >
   <i name="TEBEG">      0.00010000</i>
   <i name="TEEND">      0.00010000</i>
   <i type="int" name="NBLOCK">     1</i>
   <i type="int" name="KBLOCK">     1</i>
   <i type="int" name="NPACO">   256</i>
   <i name="APACO">     16.00000000</i>
  </separator>
  <separator name="symmetry" >
   <i type="int" name="ISYM">     2</i>
   <i name="SYMPREC">      0.00001000</i>
  </separator>
  <separator name="dos" >
   <i type="int" name="LORBIT">     0</i>
   <v name="RWIGS">     -1.00000000     -1.00000000</v>
   <i type="int" name="NEDOS">   301</i>
   <i name="EMIN">     10.00000000</i>
   <i name="EMAX">    -10.00000000</i>
   <i name="EFERMI">      0.00000000</i>
  </separator>
  <separator name="writing" >
   <i type="int" name="NWRITE">     2</i>
   <i type="logical" name="LWAVE"> T  </i>
   <i type="logical" name="LDOWNSAMPLE"> F  </i>
   <i type="logical" name="LCHARG"> T  </i>
   <i type="logical" name="LPARD"> F  </i>
   <i type="logical" name="LVTOT"> F  </i>
   <i type="logical" name="LVHAR"> F  </i>
   <i type="logical" name="LELF"> F  </i>
   <i type="logical" name="LOPTICS"> F  </i>
   <v name="STM">      0.00000000      0.00000000      0.00000000      0.00000000      0.00000000      0.00000000      0.00000000</v>
  </separator>
  <separator name="performance" >
   <i type="int" name="NPAR">     3</i>
   <i type="int" name="NSIM">     4</i>
   <i type="int" name="NBLK">    -1</i>
   <i type="logical" name="LPLANE"> T  </i>
   <i type="logical" name="LSCALAPACK"> T  </i>
   <i type="logical" name="LSCAAWARE"> F  </i>
   <i type="logical" name="LSCALU"> F  </i>
   <i type="logical" name="LASYNC"> F  </i>
   <i type="logical" name="LORBITALREAL"> F  </i>
  </separator>
  <separator name="miscellaneous" >
   <i type="int" name="IDIOT">     3</i>
   <i type="int" name="ISPECIAL">     0</i>
   <i type="logical" name="LMUSIC"> F  </i>
   <v name="POMASS">    114.82000000     74.92200000</v>
   <v name="DARWINR">      0.00000000      0.00000000</v>
   <v name="DARWINV">      1.00000000      1.00000000</v>
   <i type="logical" name="LCORR"> T  </i>
  </separator>
  <i type="logical" name="GGA_COMPAT"> T  </i>
  <i type="logical" name="LBERRY"> F  </i>
  <i type="int" name="ICORELEVEL">     0</i>
  <i type="logical" name="LDAU"> T  </i>
  <v type="int" name="LDAUTYPE">     2</v>
  <v type="int" name="LDAUL">     1</v>
  <v name="LDAUU">     -0.34900000</v>
  <v name="LDAUJ">      0.00000000</v>
  <i type="int" name="LDAUPRINT">     0</i>
  <i type="int" name="I_CONSTRAINED_M">     0</i>
  <separator name="electronic exchange-correlation" >
   <i type="string" name="GGA">PE</i>
   <i type="int" name="VOSKOWN">     0</i>
   <i type="logical" name="LHFCALC"> F  </i>
   <i type="string" name="PRECFOCK"></i>
   <i type="logical" name="LSYMGRAD"> F  </i>
   <i type="logical" name="LHFONE"> F  </i>
   <i type="logical" name="LRHFCALC"> F  </i>
   <i type="logical" name="LTHOMAS"> F  </i>
   <i type="logical" name="LMODELHF"> F  </i>
   <i name="ENCUT4O">     -1.00000000</i>
   <i type="int" name="EXXOEP">     0</i>
   <i type="int" name="FOURORBIT">     0</i>
   <i name="AEXX">      0.00000000</i>
   <i name="HFALPHA">      0.00000000</i>
   <i name="MCALPHA">      0.00000000</i>
   <i name="ALDAX">      1.00000000</i>
   <i name="AGGAX">      1.00000000</i>
   <i name="ALDAC">      1.00000000</i>
   <i name="AGGAC">      1.00000000</i>
   <i type="int" name="NKREDX">     1</i>
   <i type="int" name="NKREDY">     1</i>
   <i type="int" name="NKREDZ">     1</i>
   <i type="logical" name="SHIFTRED"> F  </i>
   <i type="logical" name="ODDONLY"> F  </i>
   <i type="logical" name="EVENONLY"> F  </i>
   <i type="int" name="LMAXFOCK">     0</i>
   <i type="int" name="NMAXFOCKAE">     0</i>
   <i type="logical" name="LFOCKAEDFT"> F  </i>
   <i name="HFSCREEN">      0.00000000</i>
   <i name="HFSCREENC">      0.00000000</i>
   <i type="int" name="NBANDSGWLOW">     0</i>
  </separator>
  <separator name="vdW DFT" >
   <i type="logical" name="LUSE_VDW"> F  </i>
   <i name="Zab_VDW">     -0.84910000</i>
   <i name="PARAM1">      0.12340000</i>
   <i name="PARAM2">      1.00000000</i>
   <i name="PARAM3">      0.00000000</i>
  </separator>
  <separator name="model GW" >
   <i type="int" name="MODEL_GW">     0</i>
   <i name="MODEL_EPS0">     16.67765919</i>
   <i name="MODEL_ALPHA">      1.00000000</i>
  </separator>
  <separator name="linear response parameters" >
   <i type="logical" name="LEPSILON"> F  </i>
   <i type="logical" name="LRPA"> F  </i>
   <i type="logical" name="LNABLA"> F  </i>
   <i type="logical" name="LVEL"> F  </i>
   <i type="int" name="KINTER">     0</i>
   <i name="CSHIFT">      0.10000000</i>
   <i name="OMEGAMAX">     -1.00000000</i>
   <i name="DEG_THRESHOLD">      0.00200000</i>
   <i name="RTIME">     -0.10000000</i>
   <i name="WPLASMAI">      0.00000000</i>
   <v name="DFIELD">      0.00000000      0.00000000      0.00000000</v>
   <v name="WPLASMA">      0.00000000      0.00000000      0.00000000      0.00000000      0.00000000      0.00000000      0.00000000      0.00000000      0.00000000</v>
  </separator>
  <separator name="orbital magnetization" >
   <i type="logical" name="NUCIND"> F  </i>
   <v name="MAGPOS">      0.00000000      0.00000000      0.00000000</v>
   <i type="logical" name="LNICSALL"> T  </i>
   <i type="logical" name="ORBITALMAG"> F  </i>
   <i type="logical" name="LMAGBLOCH"> F  </i>
   <i type="logical" name="LCHIMAG"> F  </i>
   <i type="logical" name="LGAUGE"> T  </i>
   <i type="int" name="MAGATOM">     0</i>
   <v name="MAGDIPOL">      0.00000000      0.00000000      0.00000000</v>
   <v name="AVECCONST">      0.00000000      0.00000000      0.00000000</v>
  </separator>
  <separator name="response functions" >
   <i type="logical" name="LADDER"> F  </i>
   <i type="logical" name="LRPAFORCE"> F  </i>
   <i type="logical" name="LFXC"> F  </i>
   <i type="logical" name="LHARTREE"> T  </i>
   <i type="int" name="IBSE">     0</i>
   <v type="int" name="KPOINT">    -1     0     0     0</v>
   <i type="logical" name="LTCTE"> F  </i>
   <i type="logical" name="LTETE"> F  </i>
   <i type="logical" name="LTRIPLET"> F  </i>
   <i type="logical" name="LFXCEPS"> F  </i>
   <i type="logical" name="LFXHEG"> F  </i>
   <i type="int" name="NATURALO">     2</i>
   <i type="logical" name="L2ORDER"> F  </i>
   <i type="logical" name="LMP2LT"> F  </i>
   <i type="logical" name="LUSEW"> F  </i>
   <i name="ENCUTGW">     -2.00000000</i>
   <i name="ENCUTGWSOFT">     -2.00000000</i>
   <i name="ENCUTLF">     -1.00000000</i>
   <i type="int" name="LMAXMP2">    -1</i>
   <i name="SCISSOR">      0.00000000</i>
   <i type="int" name="NOMEGA">     0</i>
   <i type="int" name="NOMEGAR">     0</i>
   <i type="int" name="NBANDSGW">    -1</i>
   <i type="int" name="NBANDSO">    -1</i>
   <i type="int" name="NBANDSV">    -1</i>
   <i type="int" name="NELM">     1</i>
   <i type="int" name="NELMHF">     1</i>
   <i type="int" name="DIM">     3</i>
   <i type="int" name="ANTIRES">     0</i>
   <i name="OMEGAMAX">    -30.00000000</i>
   <i name="OMEGAMIN">    -30.00000000</i>
   <i name="OMEGATL">   -200.00000000</i>
   <i type="int" name="OMEGAGRID">   140</i>
   <i name="CSHIFT">     -0.10000000</i>
   <i type="logical" name="SELFENERGY"> F  </i>
   <i type="logical" name="LSPECTRAL"> F  </i>
   <i type="logical" name="LSPECTRALGW"> F  </i>
   <i type="logical" name="LSINGLES"> F  </i>
   <i type="logical" name="LFERMIGW"> F  </i>
   <i type="logical" name="ODDONLYGW"> F  </i>
   <i type="logical" name="EVENONLYGW"> F  </i>
   <i type="int" name="NKREDLFX">     1</i>
   <i type="int" name="NKREDLFY">     1</i>
   <i type="int" name="NKREDLFZ">     1</i>
   <i type="int" name="MAXMEM">  2800</i>
   <i type="int" name="TELESCOPE">     0</i>
   <i type="int" name="TAUPAR">     1</i>
   <i type="int" name="OMEGAPAR">    -1</i>
   <i name="LAMBDA">      1.00000000</i>
  </separator>
  <separator name="External order field" >
   <i name="OFIELD_KAPPA">      0.00000000</i>
   <v name="OFIELD_K">      0.00000000      0.00000000      0.00000000</v>
   <i name="OFIELD_Q6_NEAR">      0.00000000</i>
   <i name="OFIELD_Q6_FAR">      0.00000000</i>
   <i name="OFIELD_A">      0.00000000</i>
  </separator>
 </parameters>
 <atominfo>
  <atoms>       2 </atoms>
  <types>       2 </types>
  <array name="atoms" >
   <dimension dim="1">ion</dimension>
   <field type="string">element</field>
   <field type="int">atomtype</field>
   <set>
    <rc><c>In</c><c>   1</c></rc>
    <rc><c>As</c><c>   2</c></rc>
   </set>
  </array>
  <array name="atomtypes" >
   <dimension dim="1">type</dimension>
   <field type="int">atomspertype</field>
   <field type="string">element</field>
   <field>mass</field>
   <field>valence</field>
   <field type="string">pseudopotential</field>
   <set>
    <rc><c>   1</c><c>In</c><c>    114.82000000</c><c>      3.00000000</c><c>  PAW_PBE In 08Apr2002                  </c></rc>
    <rc><c>   1</c><c>As</c><c>     74.92200000</c><c>      5.00000000</c><c>  PAW_PBE As 22Sep2009                  </c></rc>
   </set>
  </array>
 </atominfo>
 <structure name="initialpos" >
  <crystal>
   <varray name="basis" >
    <v>       0.00000000       3.02920000       3.02920000 </v>
    <v>       3.02920000       0.00000000       3.02920000 </v>
    <v>       3.02920000       3.02920000       0.00000000 </v>
   </varray>
   <i name="volume">     55.59219731 </i>
   <varray name="rec_basis" >
    <v>      -0.16506008       0.16506008       0.16506008 </v>
    <v>       0.16506008      -0.16506008       0.16506008 </v>
    <v>       0.16506008       0.16506008      -0.16506008 </v>
   </varray>
  </crystal>
  <varray name="positions" >
   <v>       0.00000000       0.00000000       0.00000000 </v>
   <v>       0.75000000       0.75000000       0.75000000 </v>
  </varray>
 </structure>
 <calculation>
  <scstep>
   <time name="total">    0.23    0.23</time>
   <energy>
    <i name="alphaZ">      6.67624893 </i>
    <i name="ewald">   -213.84743004 </i>
    <i name="hartreedc">    -21.29595069 </i>
    <i name="XCdc">    -67.69638834 </i>
    <i name="pawpsdc">    241.28716127 </i>
    <i name="pawaedc">   -161.20850614 </i>
    <i name="eentropy">     -0.00024824 </i>
    <i name="bandstr">     24.50871499 </i>
    <i name="atom">    223.97621261 </i>
    <i name="e_fr_energy">     32.39981436 </i>
    <i name="e_wo_entrp">     32.40006260 </i>
    <i name="e_0_energy">     32.39989711 </i>
   </energy>
  </scstep>
  <scstep>
   <time name="total">    0.20    0.20</time>
   <energy>
    <i name="e_fr_energy">     -5.27049634 </i>
    <i name="e_wo_entrp">     -5.27034550 </i>
    <i name="e_0_energy">     -5.27044606 </i>
   </energy>
  </scstep>
  <scstep>
   <time name="total">    0.20    0.20</time>
   <energy>
    <i name="e_fr_energy">    -11.08403498 </i>
    <i name="e_wo_entrp">    -11.08403920 </i>
    <i name="e_0_energy">    -11.08403638 </i>
   </energy>
  </scstep>
  <scstep>
   <time name="total">    0.20    0.20</time>
   <energy>
    <i name="e_fr_energy">    -11.93669014 </i>
    <i name="e_wo_entrp">    -11.93669437 </i>
    <i name="e_0_energy">    -11.93669155 </i>
   </energy>
  </scstep>
  <scstep>
   <time name="total">    0.23    0.23</time>
   <energy>
    <i name="e_fr_energy">    -12.07727667 </i>
    <i name="e_wo_entrp">    -12.07728274 </i>
    <i name="e_0_energy">    -12.07727869 </i>
   </energy>
  </scstep>
  <scstep>
   <time name="total">    0.18    0.18</time>
   <energy>
    <i name="e_fr_energy">    -10.49676699 </i>
    <i name="e_wo_entrp">    -10.49677341 </i>
    <i name="e_0_energy">    -10.49676913 </i>
   </energy>
  </scstep>
  <scstep>
   <time name="total">    0.17    0.17</time>
   <energy>
    <i name="e_fr_energy">    -11.11879594 </i>
    <i name="e_wo_entrp">    -11.11880436 </i>
    <i name="e_0_energy">    -11.11879875 </i>
   </energy>
  </scstep>
  <scstep>
   <time name="total">    0.17    0.17</time>
   <energy>
    <i name="e_fr_energy">    -11.23419773 </i>
    <i name="e_wo_entrp">    -11.23421170 </i>
    <i name="e_0_energy">    -11.23420239 </i>
   </energy>
  </scstep>
  <scstep>
   <time name="total">    0.17    0.17</time>
   <energy>
    <i name="e_fr_energy">    -11.26371680 </i>
    <i name="e_wo_entrp">    -11.26373692 </i>
    <i name="e_0_energy">    -11.26372351 </i>
   </energy>
  </scstep>
  <scstep>
   <time name="total">    0.17    0.17</time>
   <energy>
    <i name="e_fr_energy">    -11.29646393 </i>
    <i name="e_wo_entrp">    -11.29648485 </i>
    <i name="e_0_energy">    -11.29647090 </i>
   </energy>
  </scstep>
  <scstep>
   <time name="total">    0.17    0.17</time>
   <energy>
    <i name="e_fr_energy">    -11.30532513 </i>
    <i name="e_wo_entrp">    -11.30534457 </i>
    <i name="e_0_energy">    -11.30533161 </i>
   </energy>
  </scstep>
  <scstep>
   <time name="total">    0.17    0.17</time>
   <energy>
    <i name="e_fr_energy">    -11.30685988 </i>
    <i name="e_wo_entrp">    -11.30686887 </i>
    <i name="e_0_energy">    -11.30686287 </i>
   </energy>
  </scstep>
  <scstep>
   <time name="total">    0.17    0.17</time>
   <energy>
    <i name="e_fr_energy">    -11.30819899 </i>
    <i name="e_wo_entrp">    -11.30821670 </i>
    <i name="e_0_energy">    -11.30820489 </i>
   </energy>
  </scstep>
  <scstep>
   <time name="total">    0.17    0.17</time>
   <energy>
    <i name="e_fr_energy">    -11.30862510 </i>
    <i name="e_wo_entrp">    -11.30863440 </i>
    <i name="e_0_energy">    -11.30862820 </i>
   </energy>
  </scstep>
  <scstep>
   <time name="total">    0.17    0.17</time>
   <energy>
    <i name="e_fr_energy">    -11.30869107 </i>
    <i name="e_wo_entrp">    -11.30870846 </i>
    <i name="e_0_energy">    -11.30869686 </i>
   </energy>
  </scstep>
  <scstep>
   <time name="total">    0.17    0.17</time>
   <energy>
    <i name="e_fr_energy">    -11.30874248 </i>
    <i name="e_wo_entrp">    -11.30875980 </i>
    <i name="e_0_energy">    -11.30874825 </i>
   </energy>
  </scstep>
  <scstep>
   <time name="total">    0.17    0.17</time>
   <energy>
    <i name="e_fr_energy">    -11.30877677 </i>
    <i name="e_wo_entrp">    -11.30878595 </i>
    <i name="e_0_energy">    -11.30877983 </i>
   </energy>
  </scstep>
  <scstep>
   <time name="total">    0.17    0.17</time>
   <energy>
    <i name="e_fr_energy">    -11.30879320 </i>
    <i name="e_wo_entrp">    -11.30881046 </i>
    <i name="e_0_energy">    -11.30879895 </i>
   </energy>
  </scstep>
  <scstep>
   <time name="total">    0.20    0.20</time>
   <energy>
    <i name="alphaZ">      6.67624893 </i>
    <i name="ewald">   -213.84743004 </i>
    <i name="hartreedc">    -26.91505327 </i>
    <i name="XCdc">    -66.72443261 </i>
    <i name="pawpsdc">    572.29868578 </i>
    <i name="pawaedc">   -493.56943796 </i>
    <i name="eentropy">      0.00001725 </i>
    <i name="bandstr">    -13.20359883 </i>
    <i name="atom">    223.97621261 </i>
    <i name="e_fr_energy">    -11.30878812 </i>
    <i name="e_wo_entrp">    -11.30880537 </i>
    <i name="e_0_energy">    -11.30879387 </i>
   </energy>
  </scstep>
  <structure>
   <crystal>
    <varray name="basis" >
     <v>       0.00000000       3.02920000       3.02920000 </v>
     <v>       3.02920000       0.00000000       3.02920000 </v>
     <v>       3.02920000       3.02920000       0.00000000 </v>
    </varray>
    <i name="volume">     55.59219731 </i>
    <varray name="rec_basis" >
     <v>      -0.16506008       0.16506008       0.16506008 </v>
     <v>       0.16506008      -0.16506008       0.16506008 </v>
     <v>       0.16506008       0.16506008      -0.16506008 </v>
    </varray>
   </crystal>
   <varray name="positions" >
    <v>       0.00000000       0.00000000       0.00000000 </v>
    <v>       0.75000000       0.75000000       0.75000000 </v>
   </varray>
  </structure>
  <varray name="forces" >
   <v>       0.00000000       0.00000000       0.00000000 </v>
   <v>      -0.00000000      -0.00000000      -0.00000000 </v>
  </varray>
  <varray name="stress" >
   <v>      12.56009886      -0.00000000       0.00000000 </v>
   <v>      -0.00000000      12.56009886      -0.00000000 </v>
   <v>       0.00000000       0.00000000      12.56009886 </v>
  </varray>
  <energy>
   <i name="e_fr_energy">    -11.30878812 </i>
   <i name="e_wo_entrp">    -11.30879387 </i>
   <i name="e_0_energy">      0.00001725 </i>
  </energy>
  <time name="totalsc">    4.63    5.03</time>
  <eigenvalues>
   <array>
    <dimension dim="1">band</dimension>
    <dimension dim="2">kpoint</dimension>
    <dimension dim="3">spin</dimension>
    <field>eigene</field>
    <field>occ</field>
    <set>
     <set comment="spin 1">
      <set comment="kpoint 1">
       <r>   -8.3471    1.0000 </r>
       <r>   -8.3471    1.0000 </r>
       <r>    2.6931    1.0000 </r>
       <r>    2.6931    1.0000 </r>
       <r>    3.0017    1.0008 </r>
       <r>    3.0017    1.0007 </r>
       <r>    3.0017    1.0004 </r>
       <r>    3.0017    0.9986 </r>
       <r>    3.1821   -0.0003 </r>
       <r>    3.1821   -0.0003 </r>
       <r>    6.8363    0.0000 </r>
       <r>    6.8363    0.0000 </r>
       <r>    7.2914    0.0000 </r>
       <r>    7.2914    0.0000 </r>
       <r>    7.2914    0.0000 </r>
       <r>    7.2914    0.0000 </r>
       <r>   10.7932    0.0000 </r>
       <r>   10.7932    0.0000 </r>
       <r>   12.8338    0.0000 </r>
       <r>   12.8476    0.0000 </r>
       <r>   13.1120    0.0000 </r>
      </set>
      <set comment="kpoint 2">
       <r>   -8.1665    1.0000 </r>
       <r>   -8.1665    1.0000 </r>
       <r>    0.9836    1.0000 </r>
       <r>    0.9836    1.0000 </r>
       <r>    2.5689    1.0000 </r>
       <r>    2.5689    1.0000 </r>
       <r>    2.7765    1.0000 </r>
       <r>    2.7833    1.0000 </r>
       <r>    4.3739   -0.0000 </r>
       <r>    4.3739   -0.0000 </r>
       <r>    7.1867    0.0000 </r>
       <r>    7.1867    0.0000 </r>
       <r>    7.4668    0.0000 </r>
       <r>    7.4669    0.0000 </r>
       <r>    7.6172    0.0000 </r>
       <r>    7.6176    0.0000 </r>
       <r>   11.7444    0.0000 </r>
       <r>   11.7932    0.0000 </r>
       <r>   11.9067    0.0000 </r>
       <r>   11.9155    0.0000 </r>
       <r>   11.9302    0.0000 </r>
      </set>
      <set comment="kpoint 3">
       <r>   -7.6776    1.0000 </r>
       <r>   -7.6776    1.0000 </r>
       <r>   -1.0128    1.0000 </r>
       <r>   -1.0128    1.0000 </r>
       <r>    2.1556    1.0000 </r>
       <r>    2.1556    1.0000 </r>
       <r>    2.3730    1.0000 </r>
       <r>    2.3800    1.0000 </r>
       <r>    4.4528    0.0000 </r>
       <r>    4.4528    0.0000 </r>
       <r>    7.7613    0.0000 </r>
       <r>    7.7613    0.0000 </r>
       <r>    8.0076    0.0000 </r>
       <r>    8.0103    0.0000 </r>
       <r>    8.6580    0.0000 </r>
       <r>    8.6580    0.0000 </r>
       <r>   11.5002    0.0000 </r>
       <r>   11.5566    0.0000 </r>
       <r>   11.9111    0.0000 </r>
       <r>   11.9144    0.0000 </r>
       <r>   11.9654    0.0000 </r>
      </set>
      <set comment="kpoint 4">
       <r>   -7.1390    1.0000 </r>
       <r>   -7.1390    1.0000 </r>
       <r>   -2.3761    1.0000 </r>
       <r>   -2.3761    1.0000 </r>
       <r>    1.8867    1.0000 </r>
       <r>    1.8867    1.0000 </r>
       <r>    2.1109    1.0000 </r>
       <r>    2.1137    1.0000 </r>
       <r>    4.2706   -0.0000 </r>
       <r>    4.2706   -0.0000 </r>
       <r>    7.8191    0.0000 </r>
       <r>    7.8191    0.0000 </r>
       <r>    8.0035    0.0000 </r>
       <r>    8.0041    0.0000 </r>
       <r>    9.8402    0.0000 </r>
       <r>    9.8403    0.0000 </r>
       <r>   11.7913    0.0000 </r>
       <r>   11.7957    0.0000 </r>
       <r>   13.2625    0.0000 </r>
       <r>   13.3253    0.0000 </r>
       <r>   13.3577    0.0000 </r>
      </set>
      <set comment="kpoint 5">
       <r>   -7.1390    1.0000 </r>
       <r>   -7.1390    1.0000 </r>
       <r>   -2.3761    1.0000 </r>
       <r>   -2.3761    1.0000 </r>
       <r>    1.8867    1.0000 </r>
       <r>    1.8867    1.0000 </r>
       <r>    2.1109    1.0000 </r>
       <r>    2.1137    1.0000 </r>
       <r>    4.2706   -0.0000 </r>
       <r>    4.2706   -0.0000 </r>
       <r>    7.8191    0.0000 </r>
       <r>    7.8192    0.0000 </r>
       <r>    8.0038    0.0000 </r>
       <r>    8.0038    0.0000 </r>
       <r>    9.8402    0.0000 </r>
       <r>    9.8410    0.0000 </r>
       <r>   11.7912    0.0000 </r>
       <r>   12.3610    0.0000 </r>
       <r>   13.2596    0.0000 </r>
       <r>   13.3116    0.0000 </r>
       <r>   13.3630    0.0000 </r>
      </set>
      <set comment="kpoint 6">
       <r>   -7.6776    1.0000 </r>
       <r>   -7.6776    1.0000 </r>
       <r>   -1.0128    1.0000 </r>
       <r>   -1.0128    1.0000 </r>
       <r>    2.1556    1.0000 </r>
       <r>    2.1556    1.0000 </r>
       <r>    2.3730    1.0000 </r>
       <r>    2.3800    1.0000 </r>
       <r>    4.4528    0.0000 </r>
       <r>    4.4528    0.0000 </r>
       <r>    7.7613    0.0000 </r>
       <r>    7.7614    0.0000 </r>
       <r>    8.0075    0.0000 </r>
       <r>    8.0104    0.0000 </r>
       <r>    8.6579    0.0000 </r>
       <r>    8.6580    0.0000 </r>
       <r>   11.5003    0.0000 </r>
       <r>   11.6439    0.0000 </r>
       <r>   11.9132    0.0000 </r>
       <r>   11.9135    0.0000 </r>
       <r>   11.9777    0.0000 </r>
      </set>
      <set comment="kpoint 7">
       <r>   -8.1665    1.0000 </r>
       <r>   -8.1665    1.0000 </r>
       <r>    0.9836    1.0000 </r>
       <r>    0.9836    1.0000 </r>
       <r>    2.5689    1.0000 </r>
       <r>    2.5689    1.0000 </r>
       <r>    2.7765    1.0000 </r>
       <r>    2.7833    1.0000 </r>
       <r>    4.3739   -0.0000 </r>
       <r>    4.3739   -0.0000 </r>
       <r>    7.1867    0.0000 </r>
       <r>    7.1867    0.0000 </r>
       <r>    7.4668    0.0000 </r>
       <r>    7.4668    0.0000 </r>
       <r>    7.6171    0.0000 </r>
       <r>    7.6177    0.0000 </r>
       <r>   11.7501    0.0000 </r>
       <r>   11.8506    0.0000 </r>
       <r>   11.9222    0.0000 </r>
       <r>   11.9244    0.0000 </r>
       <r>   12.4259    0.0000 </r>
      </set>
      <set comment="kpoint 8">
       <r>   -8.1055    1.0000 </r>
       <r>   -8.1055    1.0000 </r>
       <r>    0.9411    1.0000 </r>
       <r>    0.9411    1.0000 </r>
       <r>    2.2256    1.0000 </r>
       <r>    2.2256    1.0000 </r>
       <r>    2.3532    1.0000 </r>
       <r>    2.3532    1.0000 </r>
       <r>    5.0502    0.0000 </r>
       <r>    5.0502    0.0000 </r>
       <r>    6.3235    0.0000 </r>
       <r>    6.3235    0.0000 </r>
       <r>    7.9441    0.0000 </r>
       <r>    7.9441    0.0000 </r>
       <r>    8.1603    0.0000 </r>
       <r>    8.1603    0.0000 </r>
       <r>   10.6449    0.0000 </r>
       <r>   10.6451    0.0000 </r>
       <r>   12.2817    0.0000 </r>
       <r>   12.2980    0.0000 </r>
       <r>   14.1141    0.0000 </r>
      </set>
      <set comment="kpoint 9">
       <r>   -7.7154    1.0000 </r>
       <r>   -7.7130    1.0000 </r>
       <r>   -0.5526    1.0000 </r>
       <r>   -0.5524    1.0000 </r>
       <r>    1.7204    1.0000 </r>
       <r>    1.7462    1.0000 </r>
       <r>    1.8905    1.0000 </r>
       <r>    1.8936    1.0000 </r>
       <r>    5.4503    0.0000 </r>
       <r>    5.4593    0.0000 </r>
       <r>    6.5266    0.0000 </r>
       <r>    6.5797    0.0000 </r>
       <r>    8.4887    0.0000 </r>
       <r>    8.5196    0.0000 </r>
       <r>    8.7193    0.0000 </r>
       <r>    8.7359    0.0000 </r>
       <r>   10.6974    0.0000 </r>
       <r>   10.7029    0.0000 </r>
       <r>   12.9569    0.0000 </r>
       <r>   13.0108    0.0000 </r>
       <r>   13.4088    0.0000 </r>
      </set>
      <set comment="kpoint 10">
       <r>   -7.1636    1.0000 </r>
       <r>   -7.1559    1.0000 </r>
       <r>   -2.0166    1.0000 </r>
       <r>   -2.0030    1.0000 </r>
       <r>    1.1892    1.0000 </r>
       <r>    1.2146    1.0000 </r>
       <r>    1.6537    1.0000 </r>
       <r>    1.6563    1.0000 </r>
       <r>    5.2961    0.0000 </r>
       <r>    5.2981    0.0000 </r>
       <r>    7.3184    0.0000 </r>
       <r>    7.3405    0.0000 </r>
       <r>    8.6904    0.0000 </r>
       <r>    8.6934    0.0000 </r>
       <r>    9.0900    0.0000 </r>
       <r>    9.1531    0.0000 </r>
       <r>   11.8407    0.0000 </r>
       <r>   11.9029    0.0000 </r>
       <r>   13.1116    0.0000 </r>
       <r>   13.6383    0.0000 </r>
       <r>   14.2189    0.0000 </r>
      </set>
      <set comment="kpoint 11">
       <r>   -6.9398    1.0000 </r>
       <r>   -6.9285    1.0000 </r>
       <r>   -2.4872    1.0000 </r>
       <r>   -2.4660    1.0000 </r>
       <r>    0.8808    1.0000 </r>
       <r>    0.8987    1.0000 </r>
       <r>    1.7673    1.0000 </r>
       <r>    1.7726    1.0000 </r>
       <r>    5.2396    0.0000 </r>
       <r>    5.2441    0.0000 </r>
       <r>    7.5173    0.0000 </r>
       <r>    7.5441    0.0000 </r>
       <r>    8.4276    0.0000 </r>
       <r>    8.4297    0.0000 </r>
       <r>   10.0409    0.0000 </r>
       <r>   10.0913    0.0000 </r>
       <r>   12.1540    0.0000 </r>
       <r>   12.3046    0.0000 </r>
       <r>   13.0725    0.0000 </r>
       <r>   13.1744    0.0000 </r>
       <r>   13.2239    0.0000 </r>
      </set>
      <set comment="kpoint 12">
       <r>   -7.3497    1.0000 </r>
       <r>   -7.3429    1.0000 </r>
       <r>   -1.5887    1.0000 </r>
       <r>   -1.5745    1.0000 </r>
       <r>    0.9677    1.0000 </r>
       <r>    0.9839    1.0000 </r>
       <r>    2.1548    1.0000 </r>
       <r>    2.1633    1.0000 </r>
       <r>    5.3280    0.0000 </r>
       <r>    5.3445    0.0000 </r>
       <r>    7.7748    0.0000 </r>
       <r>    7.7935    0.0000 </r>
       <r>    8.1465    0.0000 </r>
       <r>    8.1516    0.0000 </r>
       <r>    8.7948    0.0000 </r>
       <r>    8.8098    0.0000 </r>
       <r>   11.3787    0.0000 </r>
       <r>   11.4085    0.0000 </r>
       <r>   12.4600    0.0000 </r>
       <r>   12.5226    0.0000 </r>
       <r>   13.9031    0.0000 </r>
      </set>
      <set comment="kpoint 13">
       <r>   -7.8809    1.0000 </r>
       <r>   -7.8787    1.0000 </r>
       <r>   -0.0996    1.0000 </r>
       <r>   -0.0990    1.0000 </r>
       <r>    1.6134    1.0000 </r>
       <r>    1.6363    1.0000 </r>
       <r>    2.5941    1.0000 </r>
       <r>    2.6049    1.0000 </r>
       <r>    5.1390    0.0000 </r>
       <r>    5.1579    0.0000 </r>
       <r>    7.1687    0.0000 </r>
       <r>    7.3210    0.0000 </r>
       <r>    7.6251    0.0000 </r>
       <r>    7.6678    0.0000 </r>
       <r>    8.2815    0.0000 </r>
       <r>    8.3683    0.0000 </r>
       <r>   11.0372    0.0000 </r>
       <r>   11.0709    0.0000 </r>
       <r>   12.0015    0.0000 </r>
       <r>   12.0906    0.0000 </r>
       <r>   12.9215    0.0000 </r>
      </set>
      <set comment="kpoint 14">
       <r>   -7.4403    1.0000 </r>
       <r>   -7.4403    1.0000 </r>
       <r>   -0.9878    1.0000 </r>
       <r>   -0.9878    1.0000 </r>
       <r>    1.3108    1.0000 </r>
       <r>    1.3108    1.0000 </r>
       <r>    1.3683    1.0000 </r>
       <r>    1.3683    1.0000 </r>
       <r>    5.3202    0.0000 </r>
       <r>    5.3202    0.0000 </r>
       <r>    5.9099    0.0000 </r>
       <r>    5.9099    0.0000 </r>
       <r>    9.7810    0.0000 </r>
       <r>    9.7810    0.0000 </r>
       <r>    9.9529    0.0000 </r>
       <r>    9.9529    0.0000 </r>
       <r>   10.1197    0.0000 </r>
       <r>   10.1198    0.0000 </r>
       <r>   13.7010    0.0000 </r>
       <r>   13.7291    0.0000 </r>
       <r>   15.0651    0.0000 </r>
      </set>
      <set comment="kpoint 15">
       <r>   -6.9733    1.0000 </r>
       <r>   -6.9648    1.0000 </r>
       <r>   -1.9413    1.0000 </r>
       <r>   -1.9269    1.0000 </r>
       <r>    0.6351    1.0000 </r>
       <r>    0.6594    1.0000 </r>
       <r>    1.0974    1.0000 </r>
       <r>    1.0992    1.0000 </r>
       <r>    5.3703    0.0000 </r>
       <r>    5.3862    0.0000 </r>
       <r>    6.2771    0.0000 </r>
       <r>    6.2910    0.0000 </r>
       <r>    9.4570    0.0000 </r>
       <r>    9.5287    0.0000 </r>
       <r>   10.3067    0.0000 </r>
       <r>   10.3254    0.0000 </r>
       <r>   12.0040    0.0000 </r>
       <r>   12.0307    0.0000 </r>
       <r>   14.4671    0.0000 </r>
       <r>   14.7343    0.0000 </r>
       <r>   15.5279    0.0000 </r>
      </set>
      <set comment="kpoint 16">
       <r>   -6.6647    1.0000 </r>
       <r>   -6.6451    1.0000 </r>
       <r>   -2.4571    1.0000 </r>
       <r>   -2.4182    1.0000 </r>
       <r>   -0.0693    1.0000 </r>
       <r>   -0.0549    1.0000 </r>
       <r>    1.2139    1.0000 </r>
       <r>    1.2174    1.0000 </r>
       <r>    5.4886    0.0000 </r>
       <r>    5.4955    0.0000 </r>
       <r>    7.6369    0.0000 </r>
       <r>    7.7150    0.0000 </r>
       <r>    9.4811    0.0000 </r>
       <r>    9.6549    0.0000 </r>
       <r>    9.8979    0.0000 </r>
       <r>    9.9215    0.0000 </r>
       <r>   11.4042    0.0000 </r>
       <r>   11.5356    0.0000 </r>
       <r>   13.2437    0.0000 </r>
       <r>   13.2790    0.0000 </r>
       <r>   15.4686    0.0000 </r>
      </set>
      <set comment="kpoint 17">
       <r>   -6.8826    1.0000 </r>
       <r>   -6.8657    1.0000 </r>
       <r>   -2.1462    1.0000 </r>
       <r>   -2.1071    1.0000 </r>
       <r>   -0.0872    1.0000 </r>
       <r>   -0.0794    1.0000 </r>
       <r>    1.6463    1.0000 </r>
       <r>    1.6524    1.0000 </r>
       <r>    5.7445    0.0000 </r>
       <r>    5.7726    0.0000 </r>
       <r>    8.0889    0.0000 </r>
       <r>    8.2031    0.0000 </r>
       <r>    8.9618    0.0000 </r>
       <r>    9.0980    0.0000 </r>
       <r>    9.1381    0.0000 </r>
       <r>    9.1835    0.0000 </r>
       <r>   11.7026    0.0000 </r>
       <r>   11.7074    0.0000 </r>
       <r>   11.7793    0.0000 </r>
       <r>   11.9062    0.0000 </r>
       <r>   15.5195    0.0000 </r>
      </set>
      <set comment="kpoint 18">
       <r>   -7.3497    1.0000 </r>
       <r>   -7.3429    1.0000 </r>
       <r>   -1.5887    1.0000 </r>
       <r>   -1.5745    1.0000 </r>
       <r>    0.9677    1.0000 </r>
       <r>    0.9839    1.0000 </r>
       <r>    2.1548    1.0000 </r>
       <r>    2.1633    1.0000 </r>
       <r>    5.3280    0.0000 </r>
       <r>    5.3445    0.0000 </r>
       <r>    7.7750    0.0000 </r>
       <r>    7.7933    0.0000 </r>
       <r>    8.1465    0.0000 </r>
       <r>    8.1516    0.0000 </r>
       <r>    8.7946    0.0000 </r>
       <r>    8.8100    0.0000 </r>
       <r>   11.3783    0.0000 </r>
       <r>   11.4090    0.0000 </r>
       <r>   12.4616    0.0000 </r>
       <r>   12.5218    0.0000 </r>
       <r>   13.8923    0.0000 </r>
      </set>
      <set comment="kpoint 19">
       <r>   -6.6633    1.0000 </r>
       <r>   -6.6633    1.0000 </r>
       <r>   -2.4244    1.0000 </r>
       <r>   -2.4244    1.0000 </r>
       <r>    0.7601    1.0000 </r>
       <r>    0.7601    1.0000 </r>
       <r>    0.7768    1.0000 </r>
       <r>    0.7768    1.0000 </r>
       <r>    4.8723    0.0000 </r>
       <r>    4.8723    0.0000 </r>
       <r>    5.3955    0.0000 </r>
       <r>    5.3955    0.0000 </r>
       <r>   11.6113    0.0000 </r>
       <r>   11.6123    0.0000 </r>
       <r>   11.7486    0.0000 </r>
       <r>   11.7489    0.0000 </r>
       <r>   11.8992    0.0000 </r>
       <r>   11.9002    0.0000 </r>
       <r>   14.6263    0.0000 </r>
       <r>   14.7410    0.0000 </r>
       <r>   15.7423    0.0000 </r>
      </set>
      <set comment="kpoint 20">
       <r>   -6.5118    1.0000 </r>
       <r>   -6.4970    1.0000 </r>
       <r>   -2.6224    1.0000 </r>
       <r>   -2.5967    1.0000 </r>
       <r>    0.2099    1.0000 </r>
       <r>    0.2291    1.0000 </r>
       <r>    0.8156    1.0000 </r>
       <r>    0.8174    1.0000 </r>
       <r>    5.1097    0.0000 </r>
       <r>    5.1274    0.0000 </r>
       <r>    6.0508    0.0000 </r>
       <r>    6.0661    0.0000 </r>
       <r>   11.1314    0.0000 </r>
       <r>   11.1417    0.0000 </r>
       <r>   11.4524    0.0000 </r>
       <r>   11.5007    0.0000 </r>
       <r>   11.7433    0.0000 </r>
       <r>   11.9744    0.0000 </r>
       <r>   14.1539    0.0000 </r>
       <r>   14.1792    0.0000 </r>
       <r>   15.7780    0.0000 </r>
      </set>
      <set comment="kpoint 21">
       <r>   -6.6647    1.0000 </r>
       <r>   -6.6451    1.0000 </r>
       <r>   -2.4571    1.0000 </r>
       <r>   -2.4182    1.0000 </r>
       <r>   -0.0693    1.0000 </r>
       <r>   -0.0549    1.0000 </r>
       <r>    1.2139    1.0000 </r>
       <r>    1.2174    1.0000 </r>
       <r>    5.4886    0.0000 </r>
       <r>    5.4955    0.0000 </r>
       <r>    7.6369    0.0000 </r>
       <r>    7.7150    0.0000 </r>
       <r>    9.4811    0.0000 </r>
       <r>    9.6551    0.0000 </r>
       <r>    9.8997    0.0000 </r>
       <r>    9.9195    0.0000 </r>
       <r>   11.4058    0.0000 </r>
       <r>   11.5342    0.0000 </r>
       <r>   13.2450    0.0000 </r>
       <r>   13.2779    0.0000 </r>
       <r>   15.2216    0.0000 </r>
      </set>
      <set comment="kpoint 22">
       <r>   -6.9398    1.0000 </r>
       <r>   -6.9285    1.0000 </r>
       <r>   -2.4872    1.0000 </r>
       <r>   -2.4660    1.0000 </r>
       <r>    0.8808    1.0000 </r>
       <r>    0.8987    1.0000 </r>
       <r>    1.7673    1.0000 </r>
       <r>    1.7726    1.0000 </r>
       <r>    5.2396    0.0000 </r>
       <r>    5.2440    0.0000 </r>
       <r>    7.5173    0.0000 </r>
       <r>    7.5441    0.0000 </r>
       <r>    8.4283    0.0000 </r>
       <r>    8.4290    0.0000 </r>
       <r>   10.0400    0.0000 </r>
       <r>   10.0919    0.0000 </r>
       <r>   12.1541    0.0000 </r>
       <r>   12.2932    0.0000 </r>
       <r>   13.0505    0.0000 </r>
       <r>   13.1670    0.0000 </r>
       <r>   13.1928    0.0000 </r>
      </set>
      <set comment="kpoint 23">
       <r>   -6.9733    1.0000 </r>
       <r>   -6.9648    1.0000 </r>
       <r>   -1.9413    1.0000 </r>
       <r>   -1.9269    1.0000 </r>
       <r>    0.6351    1.0000 </r>
       <r>    0.6594    1.0000 </r>
       <r>    1.0974    1.0000 </r>
       <r>    1.0992    1.0000 </r>
       <r>    5.3703    0.0000 </r>
       <r>    5.3862    0.0000 </r>
       <r>    6.2771    0.0000 </r>
       <r>    6.2910    0.0000 </r>
       <r>    9.4569    0.0000 </r>
       <r>    9.5287    0.0000 </r>
       <r>   10.3068    0.0000 </r>
       <r>   10.3254    0.0000 </r>
       <r>   12.0011    0.0000 </r>
       <r>   12.0336    0.0000 </r>
       <r>   14.5071    0.0000 </r>
       <r>   15.1555    0.0000 </r>
       <r>   15.5978    0.0000 </r>
      </set>
      <set comment="kpoint 24">
       <r>   -7.1636    1.0000 </r>
       <r>   -7.1559    1.0000 </r>
       <r>   -2.0166    1.0000 </r>
       <r>   -2.0030    1.0000 </r>
       <r>    1.1892    1.0000 </r>
       <r>    1.2146    1.0000 </r>
       <r>    1.6537    1.0000 </r>
       <r>    1.6563    1.0000 </r>
       <r>    5.2961    0.0000 </r>
       <r>    5.2981    0.0000 </r>
       <r>    7.3184    0.0000 </r>
       <r>    7.3405    0.0000 </r>
       <r>    8.6890    0.0000 </r>
       <r>    8.6949    0.0000 </r>
       <r>    9.0901    0.0000 </r>
       <r>    9.1529    0.0000 </r>
       <r>   11.8374    0.0000 </r>
       <r>   11.8941    0.0000 </r>
       <r>   13.1102    0.0000 </r>
       <r>   13.1129    0.0000 </r>
       <r>   14.0763    0.0000 </r>
      </set>
      <set comment="kpoint 25">
       <r>   -7.7154    1.0000 </r>
       <r>   -7.7130    1.0000 </r>
       <r>   -0.5526    1.0000 </r>
       <r>   -0.5524    1.0000 </r>
       <r>    1.7204    1.0000 </r>
       <r>    1.7462    1.0000 </r>
       <r>    1.8905    1.0000 </r>
       <r>    1.8936    1.0000 </r>
       <r>    5.4504    0.0000 </r>
       <r>    5.4592    0.0000 </r>
       <r>    6.5266    0.0000 </r>
       <r>    6.5797    0.0000 </r>
       <r>    8.4888    0.0000 </r>
       <r>    8.5196    0.0000 </r>
       <r>    8.7194    0.0000 </r>
       <r>    8.7357    0.0000 </r>
       <r>   10.6986    0.0000 </r>
       <r>   10.7019    0.0000 </r>
       <r>   12.9421    0.0000 </r>
       <r>   13.0273    0.0000 </r>
       <r>   13.3226    0.0000 </r>
      </set>
      <set comment="kpoint 26">
       <r>   -7.2778    1.0000 </r>
       <r>   -7.2702    1.0000 </r>
       <r>   -1.4533    1.0000 </r>
       <r>   -1.4380    1.0000 </r>
       <r>    0.6945    1.0000 </r>
       <r>    0.7094    1.0000 </r>
       <r>    1.6137    1.0000 </r>
       <r>    1.6409    1.0000 </r>
       <r>    6.1003    0.0000 </r>
       <r>    6.1780    0.0000 </r>
       <r>    6.5086    0.0000 </r>
       <r>    6.6239    0.0000 </r>
       <r>    8.1909    0.0000 </r>
       <r>    8.3023    0.0000 </r>
       <r>    9.5949    0.0000 </r>
       <r>    9.7313    0.0000 </r>
       <r>   11.1713    0.0000 </r>
       <r>   11.2148    0.0000 </r>
       <r>   13.8733    0.0000 </r>
       <r>   14.3379    0.0000 </r>
       <r>   14.8916    0.0000 </r>
      </set>
      <set comment="kpoint 27">
       <r>   -6.8159    1.0000 </r>
       <r>   -6.7992    1.0000 </r>
       <r>   -2.3005    1.0000 </r>
       <r>   -2.2665    1.0000 </r>
       <r>    0.1833    1.0000 </r>
       <r>    0.1972    1.0000 </r>
       <r>    1.2296    1.0000 </r>
       <r>    1.2590    1.0000 </r>
       <r>    6.1862    0.0000 </r>
       <r>    6.2159    0.0000 </r>
       <r>    7.2314    0.0000 </r>
       <r>    7.2989    0.0000 </r>
       <r>    8.4604    0.0000 </r>
       <r>    8.5824    0.0000 </r>
       <r>   10.1366    0.0000 </r>
       <r>   10.2983    0.0000 </r>
       <r>   11.3621    0.0000 </r>
       <r>   11.4886    0.0000 </r>
       <r>   13.3769    0.0000 </r>
       <r>   13.6082    0.0000 </r>
       <r>   14.5803    0.0000 </r>
      </set>
      <set comment="kpoint 28">
       <r>   -6.8159    1.0000 </r>
       <r>   -6.7992    1.0000 </r>
       <r>   -2.3005    1.0000 </r>
       <r>   -2.2665    1.0000 </r>
       <r>    0.1833    1.0000 </r>
       <r>    0.1972    1.0000 </r>
       <r>    1.2296    1.0000 </r>
       <r>    1.2590    1.0000 </r>
       <r>    6.1862    0.0000 </r>
       <r>    6.2159    0.0000 </r>
       <r>    7.2314    0.0000 </r>
       <r>    7.2989    0.0000 </r>
       <r>    8.4604    0.0000 </r>
       <r>    8.5824    0.0000 </r>
       <r>   10.1366    0.0000 </r>
       <r>   10.2984    0.0000 </r>
       <r>   11.3640    0.0000 </r>
       <r>   11.4869    0.0000 </r>
       <r>   13.4257    0.0000 </r>
       <r>   13.7103    0.0000 </r>
       <r>   14.6523    0.0000 </r>
      </set>
      <set comment="kpoint 29">
       <r>   -6.6197    1.0000 </r>
       <r>   -6.6023    1.0000 </r>
       <r>   -2.4306    1.0000 </r>
       <r>   -2.3988    1.0000 </r>
       <r>    0.2684    1.0000 </r>
       <r>    0.2777    1.0000 </r>
       <r>    0.5913    1.0000 </r>
       <r>    0.6251    1.0000 </r>
       <r>    5.9839    0.0000 </r>
       <r>    6.0497    0.0000 </r>
       <r>    6.2894    0.0000 </r>
       <r>    6.3560    0.0000 </r>
       <r>    9.2608    0.0000 </r>
       <r>    9.3962    0.0000 </r>
       <r>   11.0959    0.0000 </r>
       <r>   11.2086    0.0000 </r>
       <r>   12.0006    0.0000 </r>
       <r>   12.1360    0.0000 </r>
       <r>   14.2228    0.0000 </r>
       <r>   14.3113    0.0000 </r>
       <r>   15.6432    0.0000 </r>
      </set>
      <set comment="kpoint 30">
       <r>   -6.5412    1.0000 </r>
       <r>   -6.5171    1.0000 </r>
       <r>   -2.4991    1.0000 </r>
       <r>   -2.4514    1.0000 </r>
       <r>   -0.1635    1.0000 </r>
       <r>   -0.1531    1.0000 </r>
       <r>    0.6658    1.0000 </r>
       <r>    0.6970    1.0000 </r>
       <r>    6.3665    0.0000 </r>
       <r>    6.3801    0.0000 </r>
       <r>    7.6432    0.0000 </r>
       <r>    7.7324    0.0000 </r>
       <r>    8.6438    0.0000 </r>
       <r>    8.8058    0.0000 </r>
       <r>    9.7813    0.0000 </r>
       <r>    9.8627    0.0000 </r>
       <r>   11.8425    0.0000 </r>
       <r>   11.9899    0.0000 </r>
       <r>   13.6543    0.0000 </r>
       <r>   13.6968    0.0000 </r>
       <r>   15.9746    0.0000 </r>
      </set>
     </set>
    </set>
   </array>
  </eigenvalues>
  <separator name="orbital magnetization" >
   <v name="MAGDIPOLOUT">      0.00000000      0.00000000      0.00000000</v>
  </separator>
  <dos>
   <i name="efermi">      3.13986641 </i>
   <total>
    <array>
     <dimension dim="1">gridpoints</dimension>
     <dimension dim="2">spin</dimension>
     <field>energy</field>
     <field>total</field>
     <field>integrated</field>
     <set>
      <set comment="spin 1">
       <r>    -9.5632     0.0000     0.0000 </r>
       <r>    -9.4740     0.0000     0.0000 </r>
       <r>    -9.3849     0.0000     0.0000 </r>
       <r>    -9.2957     0.0000     0.0000 </r>
       <r>    -9.2065     0.0000     0.0000 </r>
       <r>    -9.1173     0.0000     0.0000 </r>
       <r>    -9.0281     0.0000     0.0000 </r>
       <r>    -8.9390     0.0000     0.0000 </r>
       <r>    -8.8498     0.0000     0.0000 </r>
       <r>    -8.7606    -0.0000    -0.0000 </r>
       <r>    -8.6714    -0.0000    -0.0000 </r>
       <r>    -8.5822    -0.0000    -0.0000 </r>
       <r>    -8.4931    -0.0000    -0.0000 </r>
       <r>    -8.4039    -0.0022    -0.0002 </r>
       <r>    -8.3147     0.0637     0.0055 </r>
       <r>    -8.2255    -0.0150     0.0041 </r>
       <r>    -8.1363     0.5292     0.0513 </r>
       <r>    -8.0472     0.4199     0.0888 </r>
       <r>    -7.9580    -0.0341     0.0857 </r>
       <r>    -7.8688     0.5538     0.1351 </r>
       <r>    -7.7796     0.1986     0.1528 </r>
       <r>    -7.6904     1.5465     0.2908 </r>
       <r>    -7.6013     0.6161     0.3457 </r>
       <r>    -7.5121    -0.0308     0.3430 </r>
       <r>    -7.4229     0.2750     0.3675 </r>
       <r>    -7.3337     1.1822     0.4729 </r>
       <r>    -7.2445     1.9266     0.6447 </r>
       <r>    -7.1554     1.1865     0.7505 </r>
       <r>    -7.0662     1.0825     0.8471 </r>
       <r>    -6.9770     0.5580     0.8968 </r>
       <r>    -6.8878     2.7679     1.1437 </r>
       <r>    -6.7986     2.6136     1.3768 </r>
       <r>    -6.7095     1.0782     1.4729 </r>
       <r>    -6.6203     2.4207     1.6888 </r>
       <r>    -6.5311     2.0080     1.8679 </r>
       <r>    -6.4419     1.5353     2.0048 </r>
       <r>    -6.3527    -0.0534     2.0000 </r>
       <r>    -6.2636    -0.0001     2.0000 </r>
       <r>    -6.1744    -0.0000     2.0000 </r>
       <r>    -6.0852     0.0000     2.0000 </r>
       <r>    -5.9960     0.0000     2.0000 </r>
       <r>    -5.9068     0.0000     2.0000 </r>
       <r>    -5.8177     0.0000     2.0000 </r>
       <r>    -5.7285     0.0000     2.0000 </r>
       <r>    -5.6393     0.0000     2.0000 </r>
       <r>    -5.5501     0.0000     2.0000 </r>
       <r>    -5.4609     0.0000     2.0000 </r>
       <r>    -5.3718     0.0000     2.0000 </r>
       <r>    -5.2826     0.0000     2.0000 </r>
       <r>    -5.1934     0.0000     2.0000 </r>
       <r>    -5.1042     0.0000     2.0000 </r>
       <r>    -5.0150     0.0000     2.0000 </r>
       <r>    -4.9259     0.0000     2.0000 </r>
       <r>    -4.8367     0.0000     2.0000 </r>
       <r>    -4.7475     0.0000     2.0000 </r>
       <r>    -4.6583     0.0000     2.0000 </r>
       <r>    -4.5691     0.0000     2.0000 </r>
       <r>    -4.4800     0.0000     2.0000 </r>
       <r>    -4.3908     0.0000     2.0000 </r>
       <r>    -4.3016     0.0000     2.0000 </r>
       <r>    -4.2124     0.0000     2.0000 </r>
       <r>    -4.1233     0.0000     2.0000 </r>
       <r>    -4.0341     0.0000     2.0000 </r>
       <r>    -3.9449     0.0000     2.0000 </r>
       <r>    -3.8557     0.0000     2.0000 </r>
       <r>    -3.7665     0.0000     2.0000 </r>
       <r>    -3.6774     0.0000     2.0000 </r>
       <r>    -3.5882     0.0000     2.0000 </r>
       <r>    -3.4990     0.0000     2.0000 </r>
       <r>    -3.4098     0.0000     2.0000 </r>
       <r>    -3.3206     0.0000     2.0000 </r>
       <r>    -3.2315     0.0000     2.0000 </r>
       <r>    -3.1423     0.0000     2.0000 </r>
       <r>    -3.0531    -0.0000     2.0000 </r>
       <r>    -2.9639    -0.0000     2.0000 </r>
       <r>    -2.8747    -0.0000     2.0000 </r>
       <r>    -2.7856    -0.0000     2.0000 </r>
       <r>    -2.6964    -0.0144     1.9987 </r>
       <r>    -2.6072     0.4295     2.0370 </r>
       <r>    -2.5180     0.4960     2.0812 </r>
       <r>    -2.4288     4.5123     2.4837 </r>
       <r>    -2.3397     2.5843     2.7141 </r>
       <r>    -2.2505     2.7630     2.9605 </r>
       <r>    -2.1613     0.4418     2.9999 </r>
       <r>    -2.0721     0.6308     3.0562 </r>
       <r>    -1.9829     1.4148     3.1823 </r>
       <r>    -1.8938     1.7575     3.3391 </r>
       <r>    -1.8046     0.0241     3.3412 </r>
       <r>    -1.7154    -0.0024     3.3410 </r>
       <r>    -1.6262    -0.0025     3.3408 </r>
       <r>    -1.5370     1.5538     3.4794 </r>
       <r>    -1.4479     0.7491     3.5462 </r>
       <r>    -1.3587     0.8663     3.6234 </r>
       <r>    -1.2695    -0.0273     3.6210 </r>
       <r>    -1.1803    -0.0000     3.6210 </r>
       <r>    -1.0911    -0.0154     3.6196 </r>
       <r>    -1.0020     0.4772     3.6622 </r>
       <r>    -0.9128     0.4685     3.7040 </r>
       <r>    -0.8236    -0.0150     3.7026 </r>
       <r>    -0.7344    -0.0000     3.7026 </r>
       <r>    -0.6452    -0.0195     3.7009 </r>
       <r>    -0.5561     0.7106     3.7643 </r>
       <r>    -0.4669     0.9064     3.8451 </r>
       <r>    -0.3777    -0.0282     3.8426 </r>
       <r>    -0.2885    -0.0013     3.8425 </r>
       <r>    -0.1993     0.0073     3.8431 </r>
       <r>    -0.1102     1.9097     4.0134 </r>
       <r>    -0.0210     2.8181     4.2647 </r>
       <r>     0.0682    -0.0304     4.2620 </r>
       <r>     0.1574     0.1818     4.2782 </r>
       <r>     0.2466     3.9252     4.6283 </r>
       <r>     0.3357     1.4460     4.7572 </r>
       <r>     0.4249    -0.0565     4.7522 </r>
       <r>     0.5141    -0.0246     4.7500 </r>
       <r>     0.6033     0.6743     4.8101 </r>
       <r>     0.6925     4.0600     5.1722 </r>
       <r>     0.7816     2.1995     5.3683 </r>
       <r>     0.8708     1.2853     5.4830 </r>
       <r>     0.9600     2.0597     5.6666 </r>
       <r>     1.0492     1.6731     5.8159 </r>
       <r>     1.1384     1.4206     5.9425 </r>
       <r>     1.2275     3.3667     6.2428 </r>
       <r>     1.3167     3.3541     6.5419 </r>
       <r>     1.4059     0.4573     6.5827 </r>
       <r>     1.4951     0.0023     6.5829 </r>
       <r>     1.5843    -0.0105     6.5819 </r>
       <r>     1.6734     4.2112     6.9575 </r>
       <r>     1.7626     2.4938     7.1799 </r>
       <r>     1.8518     1.2279     7.2894 </r>
       <r>     1.9410     2.0701     7.4740 </r>
       <r>     2.0302    -0.0642     7.4683 </r>
       <r>     2.1193     0.3730     7.5015 </r>
       <r>     2.2085     2.3997     7.7155 </r>
       <r>     2.2977     0.2342     7.7364 </r>
       <r>     2.3869     0.7366     7.8021 </r>
       <r>     2.4761     0.1892     7.8190 </r>
       <r>     2.5652     0.2721     7.8433 </r>
       <r>     2.6544     1.0716     7.9388 </r>
       <r>     2.7436     0.0515     7.9434 </r>
       <r>     2.8328     0.5187     7.9897 </r>
       <r>     2.9220    -0.0180     7.9881 </r>
       <r>     3.0111     0.0889     7.9960 </r>
       <r>     3.1003     0.0446     8.0000 </r>
       <r>     3.1895     0.0410     8.0036 </r>
       <r>     3.2787     0.0253     8.0059 </r>
       <r>     3.3679    -0.0006     8.0058 </r>
       <r>     3.4570    -0.0000     8.0058 </r>
       <r>     3.5462    -0.0000     8.0058 </r>
       <r>     3.6354     0.0000     8.0058 </r>
       <r>     3.7246     0.0000     8.0058 </r>
       <r>     3.8138    -0.0000     8.0058 </r>
       <r>     3.9029    -0.0000     8.0058 </r>
       <r>     3.9921    -0.0000     8.0058 </r>
       <r>     4.0813    -0.0000     8.0058 </r>
       <r>     4.1705    -0.0041     8.0055 </r>
       <r>     4.2597     0.1694     8.0206 </r>
       <r>     4.3488     0.4352     8.0594 </r>
       <r>     4.4380     0.6007     8.1130 </r>
       <r>     4.5272     0.3827     8.1471 </r>
       <r>     4.6164    -0.0148     8.1458 </r>
       <r>     4.7056    -0.0000     8.1458 </r>
       <r>     4.7947    -0.0099     8.1449 </r>
       <r>     4.8839     0.2810     8.1699 </r>
       <r>     4.9731     0.1139     8.1801 </r>
       <r>     5.0623     0.2460     8.2020 </r>
       <r>     5.1515     1.2926     8.3173 </r>
       <r>     5.2406     1.1147     8.4167 </r>
       <r>     5.3298     3.2340     8.7051 </r>
       <r>     5.4190     3.1114     8.9826 </r>
       <r>     5.5082     2.8344     9.2354 </r>
       <r>     5.5974     0.3449     9.2661 </r>
       <r>     5.6865    -0.0298     9.2635 </r>
       <r>     5.7757     0.6020     9.3172 </r>
       <r>     5.8649     0.2028     9.3352 </r>
       <r>     5.9541     0.4463     9.3750 </r>
       <r>     6.0433     1.2457     9.4861 </r>
       <r>     6.1324     1.7376     9.6411 </r>
       <r>     6.2216     3.2578     9.9316 </r>
       <r>     6.3108     2.8688    10.1875 </r>
       <r>     6.4000     2.8270    10.4396 </r>
       <r>     6.4891     0.3374    10.4697 </r>
       <r>     6.5783     1.8131    10.6314 </r>
       <r>     6.6675     1.1766    10.7363 </r>
       <r>     6.7567    -0.0189    10.7346 </r>
       <r>     6.8459     0.0442    10.7385 </r>
       <r>     6.9350     0.0229    10.7406 </r>
       <r>     7.0242    -0.0006    10.7405 </r>
       <r>     7.1134    -0.0314    10.7377 </r>
       <r>     7.2026     0.9213    10.8199 </r>
       <r>     7.2918     2.4213    11.0358 </r>
       <r>     7.3809     2.8962    11.2941 </r>
       <r>     7.4701     0.1934    11.3113 </r>
       <r>     7.5593     1.5752    11.4518 </r>
       <r>     7.6485     2.1243    11.6413 </r>
       <r>     7.7377     2.2269    11.8399 </r>
       <r>     7.8268     2.7892    12.0886 </r>
       <r>     7.9160     0.2133    12.1076 </r>
       <r>     8.0052     0.8710    12.1853 </r>
       <r>     8.0944     0.7143    12.2490 </r>
       <r>     8.1836     2.4203    12.4648 </r>
       <r>     8.2727     1.1675    12.5689 </r>
       <r>     8.3619     1.0659    12.6640 </r>
       <r>     8.4511     2.1315    12.8541 </r>
       <r>     8.5403     2.7609    13.1003 </r>
       <r>     8.6295     1.8745    13.2675 </r>
       <r>     8.7186     3.0379    13.5384 </r>
       <r>     8.8078     2.5719    13.7678 </r>
       <r>     8.8970     0.9851    13.8556 </r>
       <r>     8.9862     0.3171    13.8839 </r>
       <r>     9.0754     0.2933    13.9100 </r>
       <r>     9.1645     1.9393    14.0830 </r>
       <r>     9.2537     0.8919    14.1625 </r>
       <r>     9.3429     0.4558    14.2032 </r>
       <r>     9.4321     0.8452    14.2786 </r>
       <r>     9.5213     1.8113    14.4401 </r>
       <r>     9.6104     1.0883    14.5371 </r>
       <r>     9.6996     1.0111    14.6273 </r>
       <r>     9.7888     1.4712    14.7585 </r>
       <r>     9.8780     1.6883    14.9091 </r>
       <r>     9.9672     1.9476    15.0828 </r>
       <r>    10.0563     0.6608    15.1417 </r>
       <r>    10.1455     2.3853    15.3544 </r>
       <r>    10.2347     0.4958    15.3986 </r>
       <r>    10.3239     2.4265    15.6150 </r>
       <r>    10.4131     0.8074    15.6870 </r>
       <r>    10.5022    -0.0213    15.6851 </r>
       <r>    10.5914    -0.0190    15.6834 </r>
       <r>    10.6806     0.7038    15.7462 </r>
       <r>    10.7698     1.3370    15.8654 </r>
       <r>    10.8590     0.0074    15.8661 </r>
       <r>    10.9481    -0.0089    15.8653 </r>
       <r>    11.0373     0.1886    15.8821 </r>
       <r>    11.1265     1.5745    16.0225 </r>
       <r>    11.2157     2.2988    16.2275 </r>
       <r>    11.3049     0.5836    16.2796 </r>
       <r>    11.3940     2.5356    16.5057 </r>
       <r>    11.4832     2.6542    16.7424 </r>
       <r>    11.5724     2.3326    16.9504 </r>
       <r>    11.6616     0.4810    16.9933 </r>
       <r>    11.7508     1.4516    17.1228 </r>
       <r>    11.8399     2.0937    17.3095 </r>
       <r>    11.9291     3.1089    17.5867 </r>
       <r>    12.0183     3.6687    17.9139 </r>
       <r>    12.1075     1.4919    18.0470 </r>
       <r>    12.1967     1.5864    18.1884 </r>
       <r>    12.2858     0.3757    18.2219 </r>
       <r>    12.3750     0.8860    18.3010 </r>
       <r>    12.4642     0.5642    18.3513 </r>
       <r>    12.5534     1.1162    18.4508 </r>
       <r>    12.6426     0.0461    18.4549 </r>
       <r>    12.7317    -0.0017    18.4548 </r>
       <r>    12.8209     0.0096    18.4556 </r>
       <r>    12.9101     0.1946    18.4730 </r>
       <r>    12.9993     1.1969    18.5797 </r>
       <r>    13.0885     1.4943    18.7130 </r>
       <r>    13.1776     1.7092    18.8654 </r>
       <r>    13.2668     2.0390    19.0473 </r>
       <r>    13.3560     1.6430    19.1938 </r>
       <r>    13.4452     1.8768    19.3612 </r>
       <r>    13.5344     0.1124    19.3712 </r>
       <r>    13.6235     0.7266    19.4360 </r>
       <r>    13.7127     2.4998    19.6589 </r>
       <r>    13.8019     0.7087    19.7221 </r>
       <r>    13.8911     0.9303    19.8051 </r>
       <r>    13.9803     0.6653    19.8644 </r>
       <r>    14.0694     0.1239    19.8755 </r>
       <r>    14.1586     0.7159    19.9393 </r>
       <r>    14.2478     1.5356    20.0762 </r>
       <r>    14.3370     1.2287    20.1858 </r>
       <r>    14.4262     0.5069    20.2310 </r>
       <r>    14.5153     0.6145    20.2858 </r>
       <r>    14.6045     0.8589    20.3624 </r>
       <r>    14.6937     1.0745    20.4582 </r>
       <r>    14.7829     0.5882    20.5107 </r>
       <r>    14.8721     0.1483    20.5239 </r>
       <r>    14.9612     0.6547    20.5823 </r>
       <r>    15.0504     0.0255    20.5846 </r>
       <r>    15.1396     0.2403    20.6060 </r>
       <r>    15.2288     0.5534    20.6554 </r>
       <r>    15.3180     0.1415    20.6680 </r>
       <r>    15.4071    -0.0198    20.6662 </r>
       <r>    15.4963     0.4506    20.7064 </r>
       <r>    15.5855     0.8602    20.7831 </r>
       <r>    15.6747     1.0071    20.8729 </r>
       <r>    15.7639     0.3224    20.9017 </r>
       <r>    15.8530     0.3281    20.9310 </r>
       <r>    15.9422     0.0363    20.9342 </r>
       <r>    16.0314     0.7647    21.0024 </r>
       <r>    16.1206    -0.0266    21.0000 </r>
       <r>    16.2098    -0.0001    21.0000 </r>
       <r>    16.2989    -0.0000    21.0000 </r>
       <r>    16.3881     0.0000    21.0000 </r>
       <r>    16.4773     0.0000    21.0000 </r>
       <r>    16.5665     0.0000    21.0000 </r>
       <r>    16.6557     0.0000    21.0000 </r>
       <r>    16.7448     0.0000    21.0000 </r>
       <r>    16.8340     0.0000    21.0000 </r>
       <r>    16.9232     0.0000    21.0000 </r>
       <r>    17.0124     0.0000    21.0000 </r>
       <r>    17.1015     0.0000    21.0000 </r>
       <r>    17.1907     0.0000    21.0000 </r>
      </set>
      <set comment="spin 2">
       <r>    -9.5632     0.0000     0.0000 </r>
       <r>    -9.4740     0.0000     0.0000 </r>
       <r>    -9.3849     0.0000     0.0000 </r>
       <r>    -9.2957     0.0000     0.0000 </r>
       <r>    -9.2065     0.0000     0.0000 </r>
       <r>    -9.1173     0.0000     0.0000 </r>
       <r>    -9.0281     0.0000     0.0000 </r>
       <r>    -8.9390     0.0000     0.0000 </r>
       <r>    -8.8498     0.0000     0.0000 </r>
       <r>    -8.7606     0.0000     0.0000 </r>
       <r>    -8.6714     0.0000     0.0000 </r>
       <r>    -8.5822     0.0000     0.0000 </r>
       <r>    -8.4931     0.0000     0.0000 </r>
       <r>    -8.4039     0.0000     0.0000 </r>
       <r>    -8.3147     0.0000     0.0000 </r>
       <r>    -8.2255     0.0000     0.0000 </r>
       <r>    -8.1363     0.0000     0.0000 </r>
       <r>    -8.0472     0.0000     0.0000 </r>
       <r>    -7.9580     0.0000     0.0000 </r>
       <r>    -7.8688     0.0000     0.0000 </r>
       <r>    -7.7796     0.0000     0.0000 </r>
       <r>    -7.6904     0.0000     0.0000 </r>
       <r>    -7.6013     0.0000     0.0000 </r>
       <r>    -7.5121     0.0000     0.0000 </r>
       <r>    -7.4229     0.0000     0.0000 </r>
       <r>    -7.3337     0.0000     0.0000 </r>
       <r>    -7.2445     0.0000     0.0000 </r>
       <r>    -7.1554     0.0000     0.0000 </r>
       <r>    -7.0662     0.0000     0.0000 </r>
       <r>    -6.9770     0.0000     0.0000 </r>
       <r>    -6.8878     0.0000     0.0000 </r>
       <r>    -6.7986     0.0000     0.0000 </r>
       <r>    -6.7095     0.0000     0.0000 </r>
       <r>    -6.6203     0.0000     0.0000 </r>
       <r>    -6.5311     0.0000     0.0000 </r>
       <r>    -6.4419     0.0000     0.0000 </r>
       <r>    -6.3527     0.0000     0.0000 </r>
       <r>    -6.2636     0.0000     0.0000 </r>
       <r>    -6.1744     0.0000     0.0000 </r>
       <r>    -6.0852     0.0000     0.0000 </r>
       <r>    -5.9960     0.0000     0.0000 </r>
       <r>    -5.9068     0.0000     0.0000 </r>
       <r>    -5.8177     0.0000     0.0000 </r>
       <r>    -5.7285     0.0000     0.0000 </r>
       <r>    -5.6393     0.0000     0.0000 </r>
       <r>    -5.5501     0.0000     0.0000 </r>
       <r>    -5.4609     0.0000     0.0000 </r>
       <r>    -5.3718     0.0000     0.0000 </r>
       <r>    -5.2826     0.0000     0.0000 </r>
       <r>    -5.1934     0.0000     0.0000 </r>
       <r>    -5.1042     0.0000     0.0000 </r>
       <r>    -5.0150     0.0000     0.0000 </r>
       <r>    -4.9259     0.0000     0.0000 </r>
       <r>    -4.8367     0.0000     0.0000 </r>
       <r>    -4.7475     0.0000     0.0000 </r>
       <r>    -4.6583     0.0000     0.0000 </r>
       <r>    -4.5691     0.0000     0.0000 </r>
       <r>    -4.4800     0.0000     0.0000 </r>
       <r>    -4.3908     0.0000     0.0000 </r>
       <r>    -4.3016     0.0000     0.0000 </r>
       <r>    -4.2124     0.0000     0.0000 </r>
       <r>    -4.1233     0.0000     0.0000 </r>
       <r>    -4.0341     0.0000     0.0000 </r>
       <r>    -3.9449     0.0000     0.0000 </r>
       <r>    -3.8557     0.0000     0.0000 </r>
       <r>    -3.7665     0.0000     0.0000 </r>
       <r>    -3.6774     0.0000     0.0000 </r>
       <r>    -3.5882     0.0000     0.0000 </r>
       <r>    -3.4990     0.0000     0.0000 </r>
       <r>    -3.4098     0.0000     0.0000 </r>
       <r>    -3.3206     0.0000     0.0000 </r>
       <r>    -3.2315     0.0000     0.0000 </r>
       <r>    -3.1423     0.0000     0.0000 </r>
       <r>    -3.0531     0.0000     0.0000 </r>
       <r>    -2.9639     0.0000     0.0000 </r>
       <r>    -2.8747     0.0000     0.0000 </r>
       <r>    -2.7856     0.0000     0.0000 </r>
       <r>    -2.6964     0.0000     0.0000 </r>
       <r>    -2.6072     0.0000     0.0000 </r>
       <r>    -2.5180     0.0000     0.0000 </r>
       <r>    -2.4288     0.0000     0.0000 </r>
       <r>    -2.3397     0.0000     0.0000 </r>
       <r>    -2.2505     0.0000     0.0000 </r>
       <r>    -2.1613     0.0000     0.0000 </r>
       <r>    -2.0721     0.0000     0.0000 </r>
       <r>    -1.9829     0.0000     0.0000 </r>
       <r>    -1.8938     0.0000     0.0000 </r>
       <r>    -1.8046     0.0000     0.0000 </r>
       <r>    -1.7154     0.0000     0.0000 </r>
       <r>    -1.6262     0.0000     0.0000 </r>
       <r>    -1.5370     0.0000     0.0000 </r>
       <r>    -1.4479     0.0000     0.0000 </r>
       <r>    -1.3587     0.0000     0.0000 </r>
       <r>    -1.2695     0.0000     0.0000 </r>
       <r>    -1.1803     0.0000     0.0000 </r>
       <r>    -1.0911     0.0000     0.0000 </r>
       <r>    -1.0020     0.0000     0.0000 </r>
       <r>    -0.9128     0.0000     0.0000 </r>
       <r>    -0.8236     0.0000     0.0000 </r>
       <r>    -0.7344     0.0000     0.0000 </r>
       <r>    -0.6452     0.0000     0.0000 </r>
       <r>    -0.5561     0.0000     0.0000 </r>
       <r>    -0.4669     0.0000     0.0000 </r>
       <r>    -0.3777     0.0000     0.0000 </r>
       <r>    -0.2885     0.0000     0.0000 </r>
       <r>    -0.1993     0.0000     0.0000 </r>
       <r>    -0.1102     0.0000     0.0000 </r>
       <r>    -0.0210     0.0000     0.0000 </r>
       <r>     0.0682     0.0000     0.0000 </r>
       <r>     0.1574     0.0000     0.0000 </r>
       <r>     0.2466     0.0000     0.0000 </r>
       <r>     0.3357     0.0000     0.0000 </r>
       <r>     0.4249     0.0000     0.0000 </r>
       <r>     0.5141     0.0000     0.0000 </r>
       <r>     0.6033     0.0000     0.0000 </r>
       <r>     0.6925     0.0000     0.0000 </r>
       <r>     0.7816     0.0000     0.0000 </r>
       <r>     0.8708     0.0000     0.0000 </r>
       <r>     0.9600     0.0000     0.0000 </r>
       <r>     1.0492     0.0000     0.0000 </r>
       <r>     1.1384     0.0000     0.0000 </r>
       <r>     1.2275     0.0000     0.0000 </r>
       <r>     1.3167     0.0000     0.0000 </r>
       <r>     1.4059     0.0000     0.0000 </r>
       <r>     1.4951     0.0000     0.0000 </r>
       <r>     1.5843     0.0000     0.0000 </r>
       <r>     1.6734     0.0000     0.0000 </r>
       <r>     1.7626     0.0000     0.0000 </r>
       <r>     1.8518     0.0000     0.0000 </r>
       <r>     1.9410     0.0000     0.0000 </r>
       <r>     2.0302     0.0000     0.0000 </r>
       <r>     2.1193     0.0000     0.0000 </r>
       <r>     2.2085     0.0000     0.0000 </r>
       <r>     2.2977     0.0000     0.0000 </r>
       <r>     2.3869     0.0000     0.0000 </r>
       <r>     2.4761     0.0000     0.0000 </r>
       <r>     2.5652     0.0000     0.0000 </r>
       <r>     2.6544     0.0000     0.0000 </r>
       <r>     2.7436     0.0000     0.0000 </r>
       <r>     2.8328     0.0000     0.0000 </r>
       <r>     2.9220     0.0000     0.0000 </r>
       <r>     3.0111     0.0000     0.0000 </r>
       <r>     3.1003     0.0000     0.0000 </r>
       <r>     3.1895     0.0000     0.0000 </r>
       <r>     3.2787     0.0000     0.0000 </r>
       <r>     3.3679     0.0000     0.0000 </r>
       <r>     3.4570     0.0000     0.0000 </r>
       <r>     3.5462     0.0000     0.0000 </r>
       <r>     3.6354     0.0000     0.0000 </r>
       <r>     3.7246     0.0000     0.0000 </r>
       <r>     3.8138     0.0000     0.0000 </r>
       <r>     3.9029     0.0000     0.0000 </r>
       <r>     3.9921     0.0000     0.0000 </r>
       <r>     4.0813     0.0000     0.0000 </r>
       <r>     4.1705     0.0000     0.0000 </r>
       <r>     4.2597     0.0000     0.0000 </r>
       <r>     4.3488     0.0000     0.0000 </r>
       <r>     4.4380     0.0000     0.0000 </r>
       <r>     4.5272     0.0000     0.0000 </r>
       <r>     4.6164     0.0000     0.0000 </r>
       <r>     4.7056     0.0000     0.0000 </r>
       <r>     4.7947     0.0000     0.0000 </r>
       <r>     4.8839     0.0000     0.0000 </r>
       <r>     4.9731     0.0000     0.0000 </r>
       <r>     5.0623     0.0000     0.0000 </r>
       <r>     5.1515     0.0000     0.0000 </r>
       <r>     5.2406     0.0000     0.0000 </r>
       <r>     5.3298     0.0000     0.0000 </r>
       <r>     5.4190     0.0000     0.0000 </r>
       <r>     5.5082     0.0000     0.0000 </r>
       <r>     5.5974     0.0000     0.0000 </r>
       <r>     5.6865     0.0000     0.0000 </r>
       <r>     5.7757     0.0000     0.0000 </r>
       <r>     5.8649     0.0000     0.0000 </r>
       <r>     5.9541     0.0000     0.0000 </r>
       <r>     6.0433     0.0000     0.0000 </r>
       <r>     6.1324     0.0000     0.0000 </r>
       <r>     6.2216     0.0000     0.0000 </r>
       <r>     6.3108     0.0000     0.0000 </r>
       <r>     6.4000     0.0000     0.0000 </r>
       <r>     6.4891     0.0000     0.0000 </r>
       <r>     6.5783     0.0000     0.0000 </r>
       <r>     6.6675     0.0000     0.0000 </r>
       <r>     6.7567     0.0000     0.0000 </r>
       <r>     6.8459     0.0000     0.0000 </r>
       <r>     6.9350     0.0000     0.0000 </r>
       <r>     7.0242     0.0000     0.0000 </r>
       <r>     7.1134     0.0000     0.0000 </r>
       <r>     7.2026     0.0000     0.0000 </r>
       <r>     7.2918     0.0000     0.0000 </r>
       <r>     7.3809     0.0000     0.0000 </r>
       <r>     7.4701     0.0000     0.0000 </r>
       <r>     7.5593     0.0000     0.0000 </r>
       <r>     7.6485     0.0000     0.0000 </r>
       <r>     7.7377     0.0000     0.0000 </r>
       <r>     7.8268     0.0000     0.0000 </r>
       <r>     7.9160     0.0000     0.0000 </r>
       <r>     8.0052     0.0000     0.0000 </r>
       <r>     8.0944     0.0000     0.0000 </r>
       <r>     8.1836     0.0000     0.0000 </r>
       <r>     8.2727     0.0000     0.0000 </r>
       <r>     8.3619     0.0000     0.0000 </r>
       <r>     8.4511     0.0000     0.0000 </r>
       <r>     8.5403     0.0000     0.0000 </r>
       <r>     8.6295     0.0000     0.0000 </r>
       <r>     8.7186     0.0000     0.0000 </r>
       <r>     8.8078     0.0000     0.0000 </r>
       <r>     8.8970     0.0000     0.0000 </r>
       <r>     8.9862     0.0000     0.0000 </r>
       <r>     9.0754     0.0000     0.0000 </r>
       <r>     9.1645     0.0000     0.0000 </r>
       <r>     9.2537     0.0000     0.0000 </r>
       <r>     9.3429     0.0000     0.0000 </r>
       <r>     9.4321     0.0000     0.0000 </r>
       <r>     9.5213     0.0000     0.0000 </r>
       <r>     9.6104     0.0000     0.0000 </r>
       <r>     9.6996     0.0000     0.0000 </r>
       <r>     9.7888     0.0000     0.0000 </r>
       <r>     9.8780     0.0000     0.0000 </r>
       <r>     9.9672     0.0000     0.0000 </r>
       <r>    10.0563     0.0000     0.0000 </r>
       <r>    10.1455     0.0000     0.0000 </r>
       <r>    10.2347     0.0000     0.0000 </r>
       <r>    10.3239     0.0000     0.0000 </r>
       <r>    10.4131     0.0000     0.0000 </r>
       <r>    10.5022     0.0000     0.0000 </r>
       <r>    10.5914     0.0000     0.0000 </r>
       <r>    10.6806     0.0000     0.0000 </r>
       <r>    10.7698     0.0000     0.0000 </r>
       <r>    10.8590     0.0000     0.0000 </r>
       <r>    10.9481     0.0000     0.0000 </r>
       <r>    11.0373     0.0000     0.0000 </r>
       <r>    11.1265     0.0000     0.0000 </r>
       <r>    11.2157     0.0000     0.0000 </r>
       <r>    11.3049     0.0000     0.0000 </r>
       <r>    11.3940     0.0000     0.0000 </r>
       <r>    11.4832     0.0000     0.0000 </r>
       <r>    11.5724     0.0000     0.0000 </r>
       <r>    11.6616     0.0000     0.0000 </r>
       <r>    11.7508     0.0000     0.0000 </r>
       <r>    11.8399     0.0000     0.0000 </r>
       <r>    11.9291     0.0000     0.0000 </r>
       <r>    12.0183     0.0000     0.0000 </r>
       <r>    12.1075     0.0000     0.0000 </r>
       <r>    12.1967     0.0000     0.0000 </r>
       <r>    12.2858     0.0000     0.0000 </r>
       <r>    12.3750     0.0000     0.0000 </r>
       <r>    12.4642     0.0000     0.0000 </r>
       <r>    12.5534     0.0000     0.0000 </r>
       <r>    12.6426     0.0000     0.0000 </r>
       <r>    12.7317     0.0000     0.0000 </r>
       <r>    12.8209     0.0000     0.0000 </r>
       <r>    12.9101     0.0000     0.0000 </r>
       <r>    12.9993     0.0000     0.0000 </r>
       <r>    13.0885     0.0000     0.0000 </r>
       <r>    13.1776     0.0000     0.0000 </r>
       <r>    13.2668     0.0000     0.0000 </r>
       <r>    13.3560     0.0000     0.0000 </r>
       <r>    13.4452     0.0000     0.0000 </r>
       <r>    13.5344     0.0000     0.0000 </r>
       <r>    13.6235     0.0000     0.0000 </r>
       <r>    13.7127     0.0000     0.0000 </r>
       <r>    13.8019     0.0000     0.0000 </r>
       <r>    13.8911     0.0000     0.0000 </r>
       <r>    13.9803     0.0000     0.0000 </r>
       <r>    14.0694     0.0000     0.0000 </r>
       <r>    14.1586     0.0000     0.0000 </r>
       <r>    14.2478     0.0000     0.0000 </r>
       <r>    14.3370     0.0000     0.0000 </r>
       <r>    14.4262     0.0000     0.0000 </r>
       <r>    14.5153     0.0000     0.0000 </r>
       <r>    14.6045     0.0000     0.0000 </r>
       <r>    14.6937     0.0000     0.0000 </r>
       <r>    14.7829     0.0000     0.0000 </r>
       <r>    14.8721     0.0000     0.0000 </r>
       <r>    14.9612     0.0000     0.0000 </r>
       <r>    15.0504     0.0000     0.0000 </r>
       <r>    15.1396     0.0000     0.0000 </r>
       <r>    15.2288     0.0000     0.0000 </r>
[...]
       <r>     9.3429     0.0000     0.0000 </r>
       <r>     9.4321     0.0000     0.0000 </r>
       <r>     9.5213     0.0000     0.0000 </r>
       <r>     9.6104     0.0000     0.0000 </r>
       <r>     9.6996     0.0000     0.0000 </r>
       <r>     9.7888     0.0000     0.0000 </r>
       <r>     9.8780     0.0000     0.0000 </r>
       <r>     9.9672     0.0000     0.0000 </r>
       <r>    10.0563     0.0000     0.0000 </r>
       <r>    10.1455     0.0000     0.0000 </r>
       <r>    10.2347     0.0000     0.0000 </r>
       <r>    10.3239     0.0000     0.0000 </r>
       <r>    10.4131     0.0000     0.0000 </r>
       <r>    10.5022     0.0000     0.0000 </r>
       <r>    10.5914     0.0000     0.0000 </r>
       <r>    10.6806     0.0000     0.0000 </r>
       <r>    10.7698     0.0000     0.0000 </r>
       <r>    10.8590     0.0000     0.0000 </r>
       <r>    10.9481     0.0000     0.0000 </r>
       <r>    11.0373     0.0000     0.0000 </r>
       <r>    11.1265     0.0000     0.0000 </r>
       <r>    11.2157     0.0000     0.0000 </r>
       <r>    11.3049     0.0000     0.0000 </r>
       <r>    11.3940     0.0000     0.0000 </r>
       <r>    11.4832     0.0000     0.0000 </r>
       <r>    11.5724     0.0000     0.0000 </r>
       <r>    11.6616     0.0000     0.0000 </r>
       <r>    11.7508     0.0000     0.0000 </r>
       <r>    11.8399     0.0000     0.0000 </r>
       <r>    11.9291     0.0000     0.0000 </r>
       <r>    12.0183     0.0000     0.0000 </r>
       <r>    12.1075     0.0000     0.0000 </r>
       <r>    12.1967     0.0000     0.0000 </r>
       <r>    12.2858     0.0000     0.0000 </r>
       <r>    12.3750     0.0000     0.0000 </r>
       <r>    12.4642     0.0000     0.0000 </r>
       <r>    12.5534     0.0000     0.0000 </r>
       <r>    12.6426     0.0000     0.0000 </r>
       <r>    12.7317     0.0000     0.0000 </r>
       <r>    12.8209     0.0000     0.0000 </r>
       <r>    12.9101     0.0000     0.0000 </r>
       <r>    12.9993     0.0000     0.0000 </r>
       <r>    13.0885     0.0000     0.0000 </r>
       <r>    13.1776     0.0000     0.0000 </r>
       <r>    13.2668     0.0000     0.0000 </r>
       <r>    13.3560     0.0000     0.0000 </r>
       <r>    13.4452     0.0000     0.0000 </r>
       <r>    13.5344     0.0000     0.0000 </r>
       <r>    13.6235     0.0000     0.0000 </r>
       <r>    13.7127     0.0000     0.0000 </r>
       <r>    13.8019     0.0000     0.0000 </r>
       <r>    13.8911     0.0000     0.0000 </r>
       <r>    13.9803     0.0000     0.0000 </r>
       <r>    14.0694     0.0000     0.0000 </r>
       <r>    14.1586     0.0000     0.0000 </r>
       <r>    14.2478     0.0000     0.0000 </r>
       <r>    14.3370     0.0000     0.0000 </r>
       <r>    14.4262     0.0000     0.0000 </r>
       <r>    14.5153     0.0000     0.0000 </r>
       <r>    14.6045     0.0000     0.0000 </r>
       <r>    14.6937     0.0000     0.0000 </r>
       <r>    14.7829     0.0000     0.0000 </r>
       <r>    14.8721     0.0000     0.0000 </r>
       <r>    14.9612     0.0000     0.0000 </r>
       <r>    15.0504     0.0000     0.0000 </r>
       <r>    15.1396     0.0000     0.0000 </r>
       <r>    15.2288     0.0000     0.0000 </r>
       <r>    15.3180     0.0000     0.0000 </r>
       <r>    15.4071     0.0000     0.0000 </r>
       <r>    15.4963     0.0000     0.0000 </r>
       <r>    15.5855     0.0000     0.0000 </r>
       <r>    15.6747     0.0000     0.0000 </r>
       <r>    15.7639     0.0000     0.0000 </r>
       <r>    15.8530     0.0000     0.0000 </r>
       <r>    15.9422     0.0000     0.0000 </r>
       <r>    16.0314     0.0000     0.0000 </r>
       <r>    16.1206     0.0000     0.0000 </r>
       <r>    16.2098     0.0000     0.0000 </r>
       <r>    16.2989     0.0000     0.0000 </r>
       <r>    16.3881     0.0000     0.0000 </r>
       <r>    16.4773     0.0000     0.0000 </r>
       <r>    16.5665     0.0000     0.0000 </r>
       <r>    16.6557     0.0000     0.0000 </r>
       <r>    16.7448     0.0000     0.0000 </r>
       <r>    16.8340     0.0000     0.0000 </r>
       <r>    16.9232     0.0000     0.0000 </r>
       <r>    17.0124     0.0000     0.0000 </r>
       <r>    17.1015     0.0000     0.0000 </r>
       <r>    17.1907     0.0000     0.0000 </r>
      </set>
      <set comment="spin 4">
       <r>    -9.5632     0.0000     0.0000 </r>
       <r>    -9.4740     0.0000     0.0000 </r>
       <r>    -9.3849     0.0000     0.0000 </r>
       <r>    -9.2957     0.0000     0.0000 </r>
       <r>    -9.2065     0.0000     0.0000 </r>
       <r>    -9.1173     0.0000     0.0000 </r>
       <r>    -9.0281     0.0000     0.0000 </r>
       <r>    -8.9390     0.0000     0.0000 </r>
       <r>    -8.8498     0.0000     0.0000 </r>
       <r>    -8.7606     0.0000     0.0000 </r>
       <r>    -8.6714     0.0000     0.0000 </r>
       <r>    -8.5822     0.0000     0.0000 </r>
       <r>    -8.4931     0.0000     0.0000 </r>
       <r>    -8.4039     0.0000     0.0000 </r>
       <r>    -8.3147     0.0000     0.0000 </r>
       <r>    -8.2255     0.0000     0.0000 </r>
       <r>    -8.1363     0.0000     0.0000 </r>
       <r>    -8.0472     0.0000     0.0000 </r>
       <r>    -7.9580     0.0000     0.0000 </r>
       <r>    -7.8688     0.0000     0.0000 </r>
       <r>    -7.7796     0.0000     0.0000 </r>
       <r>    -7.6904     0.0000     0.0000 </r>
       <r>    -7.6013     0.0000     0.0000 </r>
       <r>    -7.5121     0.0000     0.0000 </r>
       <r>    -7.4229     0.0000     0.0000 </r>
       <r>    -7.3337     0.0000     0.0000 </r>
       <r>    -7.2445     0.0000     0.0000 </r>
       <r>    -7.1554     0.0000     0.0000 </r>
       <r>    -7.0662     0.0000     0.0000 </r>
       <r>    -6.9770     0.0000     0.0000 </r>
       <r>    -6.8878     0.0000     0.0000 </r>
       <r>    -6.7986     0.0000     0.0000 </r>
       <r>    -6.7095     0.0000     0.0000 </r>
       <r>    -6.6203     0.0000     0.0000 </r>
       <r>    -6.5311     0.0000     0.0000 </r>
       <r>    -6.4419     0.0000     0.0000 </r>
       <r>    -6.3527     0.0000     0.0000 </r>
       <r>    -6.2636     0.0000     0.0000 </r>
       <r>    -6.1744     0.0000     0.0000 </r>
       <r>    -6.0852     0.0000     0.0000 </r>
       <r>    -5.9960     0.0000     0.0000 </r>
       <r>    -5.9068     0.0000     0.0000 </r>
       <r>    -5.8177     0.0000     0.0000 </r>
       <r>    -5.7285     0.0000     0.0000 </r>
       <r>    -5.6393     0.0000     0.0000 </r>
       <r>    -5.5501     0.0000     0.0000 </r>
       <r>    -5.4609     0.0000     0.0000 </r>
       <r>    -5.3718     0.0000     0.0000 </r>
       <r>    -5.2826     0.0000     0.0000 </r>
       <r>    -5.1934     0.0000     0.0000 </r>
       <r>    -5.1042     0.0000     0.0000 </r>
       <r>    -5.0150     0.0000     0.0000 </r>
       <r>    -4.9259     0.0000     0.0000 </r>
       <r>    -4.8367     0.0000     0.0000 </r>
       <r>    -4.7475     0.0000     0.0000 </r>
       <r>    -4.6583     0.0000     0.0000 </r>
       <r>    -4.5691     0.0000     0.0000 </r>
       <r>    -4.4800     0.0000     0.0000 </r>
       <r>    -4.3908     0.0000     0.0000 </r>
       <r>    -4.3016     0.0000     0.0000 </r>
       <r>    -4.2124     0.0000     0.0000 </r>
       <r>    -4.1233     0.0000     0.0000 </r>
       <r>    -4.0341     0.0000     0.0000 </r>
       <r>    -3.9449     0.0000     0.0000 </r>
       <r>    -3.8557     0.0000     0.0000 </r>
       <r>    -3.7665     0.0000     0.0000 </r>
       <r>    -3.6774     0.0000     0.0000 </r>
       <r>    -3.5882     0.0000     0.0000 </r>
       <r>    -3.4990     0.0000     0.0000 </r>
       <r>    -3.4098     0.0000     0.0000 </r>
       <r>    -3.3206     0.0000     0.0000 </r>
       <r>    -3.2315     0.0000     0.0000 </r>
       <r>    -3.1423     0.0000     0.0000 </r>
       <r>    -3.0531     0.0000     0.0000 </r>
       <r>    -2.9639     0.0000     0.0000 </r>
       <r>    -2.8747     0.0000     0.0000 </r>
       <r>    -2.7856     0.0000     0.0000 </r>
       <r>    -2.6964     0.0000     0.0000 </r>
       <r>    -2.6072     0.0000     0.0000 </r>
       <r>    -2.5180     0.0000     0.0000 </r>
       <r>    -2.4288     0.0000     0.0000 </r>
       <r>    -2.3397     0.0000     0.0000 </r>
       <r>    -2.2505     0.0000     0.0000 </r>
       <r>    -2.1613     0.0000     0.0000 </r>
       <r>    -2.0721     0.0000     0.0000 </r>
       <r>    -1.9829     0.0000     0.0000 </r>
       <r>    -1.8938     0.0000     0.0000 </r>
       <r>    -1.8046     0.0000     0.0000 </r>
       <r>    -1.7154     0.0000     0.0000 </r>
       <r>    -1.6262     0.0000     0.0000 </r>
       <r>    -1.5370     0.0000     0.0000 </r>
       <r>    -1.4479     0.0000     0.0000 </r>
       <r>    -1.3587     0.0000     0.0000 </r>
       <r>    -1.2695     0.0000     0.0000 </r>
       <r>    -1.1803     0.0000     0.0000 </r>
       <r>    -1.0911     0.0000     0.0000 </r>
       <r>    -1.0020     0.0000     0.0000 </r>
       <r>    -0.9128     0.0000     0.0000 </r>
       <r>    -0.8236     0.0000     0.0000 </r>
       <r>    -0.7344     0.0000     0.0000 </r>
       <r>    -0.6452     0.0000     0.0000 </r>
       <r>    -0.5561     0.0000     0.0000 </r>
       <r>    -0.4669     0.0000     0.0000 </r>
       <r>    -0.3777     0.0000     0.0000 </r>
       <r>    -0.2885     0.0000     0.0000 </r>
       <r>    -0.1993     0.0000     0.0000 </r>
       <r>    -0.1102     0.0000     0.0000 </r>
       <r>    -0.0210     0.0000     0.0000 </r>
       <r>     0.0682     0.0000     0.0000 </r>
       <r>     0.1574     0.0000     0.0000 </r>
       <r>     0.2466     0.0000     0.0000 </r>
       <r>     0.3357     0.0000     0.0000 </r>
       <r>     0.4249     0.0000     0.0000 </r>
       <r>     0.5141     0.0000     0.0000 </r>
       <r>     0.6033     0.0000     0.0000 </r>
       <r>     0.6925     0.0000     0.0000 </r>
       <r>     0.7816     0.0000     0.0000 </r>
       <r>     0.8708     0.0000     0.0000 </r>
       <r>     0.9600     0.0000     0.0000 </r>
       <r>     1.0492     0.0000     0.0000 </r>
       <r>     1.1384     0.0000     0.0000 </r>
       <r>     1.2275     0.0000     0.0000 </r>
       <r>     1.3167     0.0000     0.0000 </r>
       <r>     1.4059     0.0000     0.0000 </r>
       <r>     1.4951     0.0000     0.0000 </r>
       <r>     1.5843     0.0000     0.0000 </r>
       <r>     1.6734     0.0000     0.0000 </r>
       <r>     1.7626     0.0000     0.0000 </r>
       <r>     1.8518     0.0000     0.0000 </r>
       <r>     1.9410     0.0000     0.0000 </r>
       <r>     2.0302     0.0000     0.0000 </r>
       <r>     2.1193     0.0000     0.0000 </r>
       <r>     2.2085     0.0000     0.0000 </r>
       <r>     2.2977     0.0000     0.0000 </r>
       <r>     2.3869     0.0000     0.0000 </r>
       <r>     2.4761     0.0000     0.0000 </r>
       <r>     2.5652     0.0000     0.0000 </r>
       <r>     2.6544     0.0000     0.0000 </r>
       <r>     2.7436     0.0000     0.0000 </r>
       <r>     2.8328     0.0000     0.0000 </r>
       <r>     2.9220     0.0000     0.0000 </r>
       <r>     3.0111     0.0000     0.0000 </r>
       <r>     3.1003     0.0000     0.0000 </r>
       <r>     3.1895     0.0000     0.0000 </r>
       <r>     3.2787     0.0000     0.0000 </r>
       <r>     3.3679     0.0000     0.0000 </r>
       <r>     3.4570     0.0000     0.0000 </r>
       <r>     3.5462     0.0000     0.0000 </r>
       <r>     3.6354     0.0000     0.0000 </r>
       <r>     3.7246     0.0000     0.0000 </r>
       <r>     3.8138     0.0000     0.0000 </r>
       <r>     3.9029     0.0000     0.0000 </r>
       <r>     3.9921     0.0000     0.0000 </r>
       <r>     4.0813     0.0000     0.0000 </r>
       <r>     4.1705     0.0000     0.0000 </r>
       <r>     4.2597     0.0000     0.0000 </r>
       <r>     4.3488     0.0000     0.0000 </r>
       <r>     4.4380     0.0000     0.0000 </r>
       <r>     4.5272     0.0000     0.0000 </r>
       <r>     4.6164     0.0000     0.0000 </r>
       <r>     4.7056     0.0000     0.0000 </r>
       <r>     4.7947     0.0000     0.0000 </r>
       <r>     4.8839     0.0000     0.0000 </r>
       <r>     4.9731     0.0000     0.0000 </r>
       <r>     5.0623     0.0000     0.0000 </r>
       <r>     5.1515     0.0000     0.0000 </r>
       <r>     5.2406     0.0000     0.0000 </r>
       <r>     5.3298     0.0000     0.0000 </r>
       <r>     5.4190     0.0000     0.0000 </r>
       <r>     5.5082     0.0000     0.0000 </r>
       <r>     5.5974     0.0000     0.0000 </r>
       <r>     5.6865     0.0000     0.0000 </r>
       <r>     5.7757     0.0000     0.0000 </r>
       <r>     5.8649     0.0000     0.0000 </r>
       <r>     5.9541     0.0000     0.0000 </r>
       <r>     6.0433     0.0000     0.0000 </r>
       <r>     6.1324     0.0000     0.0000 </r>
       <r>     6.2216     0.0000     0.0000 </r>
       <r>     6.3108     0.0000     0.0000 </r>
       <r>     6.4000     0.0000     0.0000 </r>
       <r>     6.4891     0.0000     0.0000 </r>
       <r>     6.5783     0.0000     0.0000 </r>
       <r>     6.6675     0.0000     0.0000 </r>
       <r>     6.7567     0.0000     0.0000 </r>
       <r>     6.8459     0.0000     0.0000 </r>
       <r>     6.9350     0.0000     0.0000 </r>
       <r>     7.0242     0.0000     0.0000 </r>
       <r>     7.1134     0.0000     0.0000 </r>
       <r>     7.2026     0.0000     0.0000 </r>
       <r>     7.2918     0.0000     0.0000 </r>
       <r>     7.3809     0.0000     0.0000 </r>
       <r>     7.4701     0.0000     0.0000 </r>
       <r>     7.5593     0.0000     0.0000 </r>
       <r>     7.6485     0.0000     0.0000 </r>
       <r>     7.7377     0.0000     0.0000 </r>
       <r>     7.8268     0.0000     0.0000 </r>
       <r>     7.9160     0.0000     0.0000 </r>
       <r>     8.0052     0.0000     0.0000 </r>
       <r>     8.0944     0.0000     0.0000 </r>
       <r>     8.1836     0.0000     0.0000 </r>
       <r>     8.2727     0.0000     0.0000 </r>
       <r>     8.3619     0.0000     0.0000 </r>
       <r>     8.4511     0.0000     0.0000 </r>
       <r>     8.5403     0.0000     0.0000 </r>
       <r>     8.6295     0.0000     0.0000 </r>
       <r>     8.7186     0.0000     0.0000 </r>
       <r>     8.8078     0.0000     0.0000 </r>
       <r>     8.8970     0.0000     0.0000 </r>
       <r>     8.9862     0.0000     0.0000 </r>
       <r>     9.0754     0.0000     0.0000 </r>
       <r>     9.1645     0.0000     0.0000 </r>
       <r>     9.2537     0.0000     0.0000 </r>
       <r>     9.3429     0.0000     0.0000 </r>
       <r>     9.4321     0.0000     0.0000 </r>
       <r>     9.5213     0.0000     0.0000 </r>
       <r>     9.6104     0.0000     0.0000 </r>
       <r>     9.6996     0.0000     0.0000 </r>
       <r>     9.7888     0.0000     0.0000 </r>
       <r>     9.8780     0.0000     0.0000 </r>
       <r>     9.9672     0.0000     0.0000 </r>
       <r>    10.0563     0.0000     0.0000 </r>
       <r>    10.1455     0.0000     0.0000 </r>
       <r>    10.2347     0.0000     0.0000 </r>
       <r>    10.3239     0.0000     0.0000 </r>
       <r>    10.4131     0.0000     0.0000 </r>
       <r>    10.5022     0.0000     0.0000 </r>
       <r>    10.5914     0.0000     0.0000 </r>
       <r>    10.6806     0.0000     0.0000 </r>
       <r>    10.7698     0.0000     0.0000 </r>
       <r>    10.8590     0.0000     0.0000 </r>
       <r>    10.9481     0.0000     0.0000 </r>
       <r>    11.0373     0.0000     0.0000 </r>
       <r>    11.1265     0.0000     0.0000 </r>
       <r>    11.2157     0.0000     0.0000 </r>
       <r>    11.3049     0.0000     0.0000 </r>
       <r>    11.3940     0.0000     0.0000 </r>
       <r>    11.4832     0.0000     0.0000 </r>
       <r>    11.5724     0.0000     0.0000 </r>
       <r>    11.6616     0.0000     0.0000 </r>
       <r>    11.7508     0.0000     0.0000 </r>
       <r>    11.8399     0.0000     0.0000 </r>
       <r>    11.9291     0.0000     0.0000 </r>
       <r>    12.0183     0.0000     0.0000 </r>
       <r>    12.1075     0.0000     0.0000 </r>
       <r>    12.1967     0.0000     0.0000 </r>
       <r>    12.2858     0.0000     0.0000 </r>
       <r>    12.3750     0.0000     0.0000 </r>
       <r>    12.4642     0.0000     0.0000 </r>
       <r>    12.5534     0.0000     0.0000 </r>
       <r>    12.6426     0.0000     0.0000 </r>
       <r>    12.7317     0.0000     0.0000 </r>
       <r>    12.8209     0.0000     0.0000 </r>
       <r>    12.9101     0.0000     0.0000 </r>
       <r>    12.9993     0.0000     0.0000 </r>
       <r>    13.0885     0.0000     0.0000 </r>
       <r>    13.1776     0.0000     0.0000 </r>
       <r>    13.2668     0.0000     0.0000 </r>
       <r>    13.3560     0.0000     0.0000 </r>
       <r>    13.4452     0.0000     0.0000 </r>
       <r>    13.5344     0.0000     0.0000 </r>
       <r>    13.6235     0.0000     0.0000 </r>
       <r>    13.7127     0.0000     0.0000 </r>
       <r>    13.8019     0.0000     0.0000 </r>
       <r>    13.8911     0.0000     0.0000 </r>
       <r>    13.9803     0.0000     0.0000 </r>
       <r>    14.0694     0.0000     0.0000 </r>
       <r>    14.1586     0.0000     0.0000 </r>
       <r>    14.2478     0.0000     0.0000 </r>
       <r>    14.3370     0.0000     0.0000 </r>
       <r>    14.4262     0.0000     0.0000 </r>
       <r>    14.5153     0.0000     0.0000 </r>
       <r>    14.6045     0.0000     0.0000 </r>
       <r>    14.6937     0.0000     0.0000 </r>
       <r>    14.7829     0.0000     0.0000 </r>
       <r>    14.8721     0.0000     0.0000 </r>
       <r>    14.9612     0.0000     0.0000 </r>
       <r>    15.0504     0.0000     0.0000 </r>
       <r>    15.1396     0.0000     0.0000 </r>
       <r>    15.2288     0.0000     0.0000 </r>
       <r>    15.3180     0.0000     0.0000 </r>
       <r>    15.4071     0.0000     0.0000 </r>
       <r>    15.4963     0.0000     0.0000 </r>
       <r>    15.5855     0.0000     0.0000 </r>
       <r>    15.6747     0.0000     0.0000 </r>
       <r>    15.7639     0.0000     0.0000 </r>
       <r>    15.8530     0.0000     0.0000 </r>
       <r>    15.9422     0.0000     0.0000 </r>
       <r>    16.0314     0.0000     0.0000 </r>
       <r>    16.1206     0.0000     0.0000 </r>
       <r>    16.2098     0.0000     0.0000 </r>
       <r>    16.2989     0.0000     0.0000 </r>
       <r>    16.3881     0.0000     0.0000 </r>
       <r>    16.4773     0.0000     0.0000 </r>
       <r>    16.5665     0.0000     0.0000 </r>
       <r>    16.6557     0.0000     0.0000 </r>
       <r>    16.7448     0.0000     0.0000 </r>
       <r>    16.8340     0.0000     0.0000 </r>
       <r>    16.9232     0.0000     0.0000 </r>
       <r>    17.0124     0.0000     0.0000 </r>
       <r>    17.1015     0.0000     0.0000 </r>
       <r>    17.1907     0.0000     0.0000 </r>
      </set>
     </set>
    </array>
   </total>
  </dos>
 </calculation>
 <structure name="finalpos" >
  <crystal>
   <varray name="basis" >
    <v>       0.00000000       3.02920000       3.02920000 </v>
    <v>       3.02920000       0.00000000       3.02920000 </v>
    <v>       3.02920000       3.02920000       0.00000000 </v>
   </varray>
   <i name="volume">     55.59219731 </i>
   <varray name="rec_basis" >
    <v>      -0.16506008       0.16506008       0.16506008 </v>
    <v>       0.16506008      -0.16506008       0.16506008 </v>
    <v>       0.16506008       0.16506008      -0.16506008 </v>
   </varray>
  </crystal>
  <varray name="positions" >
   <v>       0.00000000       0.00000000       0.00000000 </v>
   <v>       0.75000000       0.75000000       0.75000000 </v>
  </varray>
 </structure>
</modeling>
