 running on   56 total cores
 distrk:  each k-point on   56 cores,    1 groups
 distr:  one band on    1 cores,   56 groups
 using from now: INCAR     
 vasp.5.4.4.18Apr17-6-g9f103f2a35 (build Nov 08 2017 12:56:59) complex          
  
 POSCAR found type information on POSCAR  In As
 POSCAR found :  2 types and       2 ions
 scaLAPACK will be used

 ----------------------------------------------------------------------------- 
|                                                                             |
|           W    W    AA    RRRRR   N    N  II  N    N   GGGG   !!!           |
|           W    W   A  A   R    R  NN   N  II  NN   N  G    G  !!!           |
|           W    W  A    A  R    R  N N  N  II  N N  N  G       !!!           |
|           W WW W  AAAAAA  RRRRR   N  N N  II  N  N N  G  GGG   !            |
|           WW  WW  A    A  R   R   N   NN  II  N   NN  G    G                |
|           W    W  A    A  R    R  N    N  II  N    N   GGGG   !!!           |
|                                                                             |
|      For optimal performance we recommend to set                            |
|        NCORE= 4 - approx SQRT( number of cores)                             |
|      NCORE specifies how many cores store one orbital (NPAR=cpu/NCORE).     |
|      This setting can  greatly improve the performance of VASP for DFT.     |
|      The default,   NCORE=1            might be grossly inefficient         |
|      on modern multi-core architectures or massively parallel machines.     |
|      Do your own testing !!!!                                               |
|      Unfortunately you need to use the default for GW and RPA calculations. |
|      (for HF NCORE is supported but not extensively tested yet)             |
|                                                                             |
 ----------------------------------------------------------------------------- 

 LDA part: xc-table for Pade appr. of Perdew
 POSCAR, INCAR and KPOINTS ok, starting setup
 FFT: planning ...
 WAVECAR not read
 entering main loop
       N       E                     dE             d eps       ncg     rms          ort
DAV:   1     0.107688838644E+01    0.10769E+01   -0.30022E+03  1232   0.178E+02
DAV:   2    -0.140737361752E+02   -0.15151E+02   -0.15151E+02  1232   0.275E+01
DAV:   3    -0.142084746333E+02   -0.13474E+00   -0.13474E+00  1232   0.351E+00
DAV:   4    -0.142093930712E+02   -0.91844E-03   -0.91844E-03  1232   0.265E-01
DAV:   5    -0.142094023378E+02   -0.92666E-05   -0.92667E-05  1232   0.276E-02
 gam= 0.000 g(H,U,f)=  0.836E+00 0.376E+01-0.308E-08 ort(H,U,f) = 0.000E+00 0.000E+00 0.000E+00
SDA:   6    -0.104989854269E+02    0.37104E+01   -0.18399E+01  1232   0.460E+01 0.000E+00
 gam= 0.382 g(H,U,f)=  0.108E+00 0.131E+01 0.204E-09 ort(H,U,f) = 0.292E+00 0.225E+01-0.442E-09
DMP:   7    -0.119212827394E+02   -0.14223E+01   -0.95455E+00  1232   0.142E+01 0.254E+01
 gam= 0.382 g(H,U,f)=  0.218E-01 0.167E+00 0.494E-10 ort(H,U,f) =-0.590E-01 0.777E+00-0.157E-09
DMP:   8    -0.125383615560E+02   -0.61708E+00   -0.18503E+00  1232   0.188E+00 0.718E+00
 gam= 0.382 g(H,U,f)=  0.664E-01 0.160E-02 0.452E-10 ort(H,U,f) =-0.200E-01-0.732E-02-0.759E-10
DMP:   9    -0.126250082699E+02   -0.86647E-01   -0.23009E-01  1232   0.680E-01-0.273E-01
 gam= 0.382 g(H,U,f)=  0.359E-01 0.221E-01 0.177E-10 ort(H,U,f) = 0.412E-01-0.597E-01-0.316E-11
DMP:  10    -0.126328626236E+02   -0.78544E-02   -0.20370E-01  1232   0.580E-01-0.185E-01
 gam= 0.382 g(H,U,f)=  0.605E-02 0.175E-01 0.940E-11 ort(H,U,f) = 0.195E-01-0.955E-03-0.109E-10
DMP:  11    -0.126468237756E+02   -0.13961E-01   -0.12235E-01  1232   0.235E-01 0.185E-01
 gam= 0.382 g(H,U,f)=  0.943E-03 0.522E-02 0.420E-10 ort(H,U,f) =-0.122E-02 0.941E-02 0.519E-11
DMP:  12    -0.126546342669E+02   -0.78105E-02   -0.37189E-02  1232   0.617E-02 0.819E-02
 gam= 0.382 g(H,U,f)=  0.207E-02 0.608E-03 0.184E-10 ort(H,U,f) =-0.181E-02 0.296E-02 0.299E-10
DMP:  13    -0.126567424107E+02   -0.21081E-02   -0.12456E-02  1232   0.267E-02 0.115E-02
 gam= 0.382 g(H,U,f)=  0.142E-02 0.416E-04 0.745E-11 ort(H,U,f) = 0.866E-03 0.791E-04 0.185E-10
DMP:  14    -0.126575573833E+02   -0.81497E-03   -0.72900E-03  1232   0.146E-02 0.945E-03
 gam= 0.382 g(H,U,f)=  0.413E-03 0.538E-04 0.416E-11 ort(H,U,f) = 0.823E-03-0.109E-03 0.108E-10
DMP:  15    -0.126580641600E+02   -0.50678E-03   -0.29575E-03  1232   0.467E-03 0.714E-03
 gam= 0.382 g(H,U,f)=  0.665E-04 0.252E-04 0.244E-11 ort(H,U,f) = 0.157E-03 0.140E-05 0.622E-11
DMP:  16    -0.126582425744E+02   -0.17841E-03   -0.60936E-04  1232   0.917E-04 0.159E-03
 gam= 0.382 g(H,U,f)=  0.357E-04 0.527E-05 0.113E-11 ort(H,U,f) =-0.293E-04 0.113E-04 0.325E-11
DMP:  17    -0.126582685949E+02   -0.26020E-04   -0.13636E-04  1232   0.410E-04-0.180E-04
 final diagonalization
   1 F= -.12658269E+02 E0= -.12658278E+02  d E =0.268422E-04  mag=    -0.0000    -0.0000    -0.0000
 writing wavefunctions
