<?xml version="1.0" encoding="ISO-8859-1"?>
<modeling>
 <generator>
  <i name="program" type="string">vasp </i>
  <i name="version" type="string">5.4.4.18Apr17-6-g9f103f2a35  </i>
  <i name="subversion" type="string">(build Nov 08 2017 12:56:59) complex            parallel </i>
  <i name="platform" type="string">LinuxIFC </i>
  <i name="date" type="string">2021 05 28 </i>
  <i name="time" type="string">00:22:50 </i>
 </generator>
 <incar>
  <i type="int" name="ISTART">     0</i>
  <i type="string" name="PREC">n</i>
  <i type="string" name="ALGO"> D</i>
  <i type="logical" name="LSORBIT"> T  </i>
  <v name="SAXIS">      0.00000000      0.00000000      1.00000000</v>
  <i type="int" name="ISPIN">     2</i>
  <i type="int" name="ICHARG">     2</i>
  <i name="EDIFF">      0.00010000</i>
  <i name="ENCUT">    300.00000000</i>
  <v name="MAGMOM">      0.00000000      0.00000000      0.00000000      0.00000000      0.00000000      0.00000000</v>
  <i name="SIGMA">      0.05000000</i>
  <i type="int" name="LMAXMIX">     4</i>
  <v type="int" name="KPOINT_BSE">    -1     0     0     0</v>
  <i type="string" name="GGA"> PE</i>
  <i type="logical" name="LDAU"> T  </i>
  <v type="int" name="LDAUL">     1     1</v>
  <v name="LDAUU">      3.97600000    -10.00000000</v>
  <v name="LDAUJ">      0.00000000      0.00000000</v>
 </incar>
 <structure name="primitive_cell" >
  <crystal>
   <varray name="basis" >
    <v>       0.00000000       3.02920000       3.02920000 </v>
    <v>       3.02920000       0.00000000       3.02920000 </v>
    <v>       3.02920000       3.02920000       0.00000000 </v>
   </varray>
   <i name="volume">     55.59219731 </i>
   <varray name="rec_basis" >
    <v>      -0.16506008       0.16506008       0.16506008 </v>
    <v>       0.16506008      -0.16506008       0.16506008 </v>
    <v>       0.16506008       0.16506008      -0.16506008 </v>
   </varray>
  </crystal>
  <varray name="positions" >
   <v>       0.00000000       0.00000000       0.00000000 </v>
   <v>       0.25000000       0.25000000       0.25000000 </v>
  </varray>
 </structure>
 <varray name="primitive_index" >
  <v type="int" >        1 </v>
  <v type="int" >        2 </v>
 </varray>
 <kpoints>
  <generation param="Gamma">
   <v type="int" name="divisions">       6        6        6 </v>
   <v name="usershift">      0.00000000       0.00000000       0.00000000 </v>
   <v name="genvec1">      0.16666667       0.00000000       0.00000000 </v>
   <v name="genvec2">      0.00000000       0.16666667       0.00000000 </v>
   <v name="genvec3">      0.00000000       0.00000000       0.16666667 </v>
   <v name="shift">      0.00000000       0.00000000       0.00000000 </v>
  </generation>
  <varray name="kpointlist" >
   <v>       0.00000000       0.00000000       0.00000000 </v>
   <v>       0.16666667       0.00000000       0.00000000 </v>
   <v>       0.33333333       0.00000000       0.00000000 </v>
   <v>       0.50000000       0.00000000       0.00000000 </v>
   <v>      -0.33333333       0.00000000       0.00000000 </v>
   <v>      -0.16666667       0.00000000       0.00000000 </v>
   <v>       0.16666667       0.16666667       0.00000000 </v>
   <v>       0.33333333       0.16666667       0.00000000 </v>
   <v>       0.50000000       0.16666667       0.00000000 </v>
   <v>      -0.33333333       0.16666667       0.00000000 </v>
   <v>      -0.16666667       0.16666667       0.00000000 </v>
   <v>       0.33333333       0.33333333       0.00000000 </v>
   <v>       0.50000000       0.33333333       0.00000000 </v>
   <v>      -0.33333333       0.33333333       0.00000000 </v>
   <v>      -0.16666667       0.33333333       0.00000000 </v>
   <v>       0.50000000       0.50000000       0.00000000 </v>
   <v>      -0.33333333       0.50000000       0.00000000 </v>
   <v>      -0.16666667       0.50000000       0.00000000 </v>
   <v>      -0.16666667      -0.33333333       0.00000000 </v>
   <v>       0.50000000       0.33333333       0.16666667 </v>
   <v>      -0.33333333       0.33333333       0.16666667 </v>
   <v>      -0.33333333       0.50000000       0.16666667 </v>
  </varray>
  <varray name="weights" >
   <v>       0.00462963 </v>
   <v>       0.01851852 </v>
   <v>       0.01851852 </v>
   <v>       0.01851852 </v>
   <v>       0.01851852 </v>
   <v>       0.01851852 </v>
   <v>       0.02777778 </v>
   <v>       0.05555556 </v>
   <v>       0.05555556 </v>
   <v>       0.05555556 </v>
   <v>       0.05555556 </v>
   <v>       0.02777778 </v>
   <v>       0.05555556 </v>
   <v>       0.05555556 </v>
   <v>       0.05555556 </v>
   <v>       0.01388889 </v>
   <v>       0.05555556 </v>
   <v>       0.05555556 </v>
   <v>       0.05555556 </v>
   <v>       0.11111111 </v>
   <v>       0.11111111 </v>
   <v>       0.05555556 </v>
  </varray>
 </kpoints>
 <parameters>
  <separator name="general" >
   <i type="string" name="SYSTEM">unknown system</i>
   <i type="logical" name="LCOMPAT"> F  </i>
  </separator>
  <separator name="electronic" >
   <i type="string" name="PREC">n</i>
   <i name="ENMAX">    300.00000000</i>
   <i name="ENAUG">    462.75800000</i>
   <i name="EDIFF">      0.00010000</i>
   <i type="int" name="IALGO">    53</i>
   <i type="int" name="IWAVPR">    10</i>
   <i type="int" name="NBANDS">    56</i>
   <i name="NELECT">      8.00000000</i>
   <i type="int" name="TURBO">     0</i>
   <i type="int" name="IRESTART">     0</i>
   <i type="int" name="NREBOOT">     0</i>
   <i type="int" name="NMIN">     0</i>
   <i name="EREF">      0.00000000</i>
   <separator name="electronic smearing" >
    <i type="int" name="ISMEAR">     1</i>
    <i name="SIGMA">      0.05000000</i>
    <i name="KSPACING">      0.50000000</i>
    <i type="logical" name="KGAMMA"> T  </i>
   </separator>
   <separator name="electronic projectors" >
    <i type="logical" name="LREAL"> F  </i>
    <v name="ROPT">      0.00000000      0.00000000</v>
    <i type="int" name="LMAXPAW">  -100</i>
    <i type="int" name="LMAXMIX">     4</i>
    <i type="logical" name="NLSPLINE"> F  </i>
   </separator>
   <separator name="electronic startup" >
    <i type="int" name="ISTART">     0</i>
    <i type="int" name="ICHARG">     2</i>
    <i type="int" name="INIWAV">     1</i>
   </separator>
   <separator name="electronic spin" >
    <i type="int" name="ISPIN">     1</i>
    <i type="logical" name="LNONCOLLINEAR"> T  </i>
    <v name="MAGMOM">      0.00000000      0.00000000      0.00000000      0.00000000      0.00000000      0.00000000</v>
    <i name="NUPDOWN">     -1.00000000</i>
    <i type="logical" name="LSORBIT"> T  </i>
    <v name="SAXIS">      0.00000000      0.00000000      1.00000000</v>
    <i type="logical" name="LSPIRAL"> F  </i>
    <v name="QSPIRAL">      0.00000000      0.00000000      0.00000000</v>
    <i type="logical" name="LZEROZ"> F  </i>
   </separator>
   <separator name="electronic exchange-correlation" >
    <i type="logical" name="LASPH"> F  </i>
    <i type="logical" name="LMETAGGA"> F  </i>
   </separator>
   <separator name="electronic convergence" >
    <i type="int" name="NELM">    60</i>
    <i type="int" name="NELMDL">    -5</i>
    <i type="int" name="NELMIN">     2</i>
    <i name="ENINI">    300.00000000</i>
    <separator name="electronic convergence detail" >
     <i type="logical" name="LDIAG"> T  </i>
     <i type="logical" name="LSUBROT"> F  </i>
     <i name="WEIMIN">      0.00000000</i>
     <i name="EBREAK">      0.00000045</i>
     <i name="DEPER">      0.30000000</i>
     <i type="int" name="NRMM">     4</i>
     <i name="TIME">      0.40000000</i>
    </separator>
   </separator>
   <separator name="electronic mixer" >
    <i name="AMIX">      0.40000000</i>
    <i name="BMIX">      1.00000000</i>
    <i name="AMIN">      0.10000000</i>
    <i name="AMIX_MAG">      1.60000000</i>
    <i name="BMIX_MAG">      1.00000000</i>
    <separator name="electronic mixer details" >
     <i type="int" name="IMIX">     4</i>
     <i type="logical" name="MIXFIRST"> F  </i>
     <i type="int" name="MAXMIX">   -45</i>
     <i name="WC">    100.00000000</i>
     <i type="int" name="INIMIX">     1</i>
     <i type="int" name="MIXPRE">     1</i>
     <i type="int" name="MREMOVE">     5</i>
    </separator>
   </separator>
   <separator name="electronic dipolcorrection" >
    <i type="logical" name="LDIPOL"> F  </i>
    <i type="logical" name="LMONO"> F  </i>
    <i type="int" name="IDIPOL">     0</i>
    <i name="EPSILON">      1.00000000</i>
    <v name="DIPOL">   -100.00000000   -100.00000000   -100.00000000</v>
    <i name="EFIELD">      0.00000000</i>
   </separator>
  </separator>
  <separator name="grids" >
   <i type="int" name="NGX">    18</i>
   <i type="int" name="NGY">    18</i>
   <i type="int" name="NGZ">    18</i>
   <i type="int" name="NGXF">    36</i>
   <i type="int" name="NGYF">    36</i>
   <i type="int" name="NGZF">    36</i>
   <i type="logical" name="ADDGRID"> F  </i>
  </separator>
  <separator name="ionic" >
   <i type="int" name="NSW">     0</i>
   <i type="int" name="IBRION">    -1</i>
   <i type="int" name="MDALGO">     0</i>
   <i type="int" name="ISIF">     2</i>
   <i name="PSTRESS">      0.00000000</i>
   <i name="EDIFFG">      0.00100000</i>
   <i type="int" name="NFREE">     0</i>
   <i name="POTIM">      0.50000000</i>
   <i name="SMASS">     -3.00000000</i>
   <i name="SCALEE">      1.00000000</i>
  </separator>
  <separator name="ionic md" >
   <i name="TEBEG">      0.00010000</i>
   <i name="TEEND">      0.00010000</i>
   <i type="int" name="NBLOCK">     1</i>
   <i type="int" name="KBLOCK">     1</i>
   <i type="int" name="NPACO">   256</i>
   <i name="APACO">     16.00000000</i>
  </separator>
  <separator name="symmetry" >
   <i type="int" name="ISYM">     2</i>
   <i name="SYMPREC">      0.00001000</i>
  </separator>
  <separator name="dos" >
   <i type="int" name="LORBIT">     0</i>
   <v name="RWIGS">     -1.00000000     -1.00000000</v>
   <i type="int" name="NEDOS">   301</i>
   <i name="EMIN">     10.00000000</i>
   <i name="EMAX">    -10.00000000</i>
   <i name="EFERMI">      0.00000000</i>
  </separator>
  <separator name="writing" >
   <i type="int" name="NWRITE">     2</i>
   <i type="logical" name="LWAVE"> T  </i>
   <i type="logical" name="LDOWNSAMPLE"> F  </i>
   <i type="logical" name="LCHARG"> T  </i>
   <i type="logical" name="LPARD"> F  </i>
   <i type="logical" name="LVTOT"> F  </i>
   <i type="logical" name="LVHAR"> F  </i>
   <i type="logical" name="LELF"> F  </i>
   <i type="logical" name="LOPTICS"> F  </i>
   <v name="STM">      0.00000000      0.00000000      0.00000000      0.00000000      0.00000000      0.00000000      0.00000000</v>
  </separator>
  <separator name="performance" >
   <i type="int" name="NPAR">    56</i>
   <i type="int" name="NSIM">     4</i>
   <i type="int" name="NBLK">    -1</i>
   <i type="logical" name="LPLANE"> T  </i>
   <i type="logical" name="LSCALAPACK"> T  </i>
   <i type="logical" name="LSCAAWARE"> T  </i>
   <i type="logical" name="LSCALU"> F  </i>
   <i type="logical" name="LASYNC"> F  </i>
   <i type="logical" name="LORBITALREAL"> F  </i>
  </separator>
  <separator name="miscellaneous" >
   <i type="int" name="IDIOT">     3</i>
   <i type="int" name="ISPECIAL">     0</i>
   <i type="logical" name="LMUSIC"> F  </i>
   <v name="POMASS">    114.82000000     74.92200000</v>
   <v name="DARWINR">      0.00000000      0.00000000</v>
   <v name="DARWINV">      1.00000000      1.00000000</v>
   <i type="logical" name="LCORR"> T  </i>
  </separator>
  <i type="logical" name="GGA_COMPAT"> T  </i>
  <i type="logical" name="LBERRY"> F  </i>
  <i type="int" name="ICORELEVEL">     0</i>
  <i type="logical" name="LDAU"> T  </i>
  <v type="int" name="LDAUTYPE">     2</v>
  <v type="int" name="LDAUL">     1</v>
  <v name="LDAUU">      3.97600000</v>
  <v name="LDAUJ">      0.00000000</v>
  <i type="int" name="LDAUPRINT">     0</i>
  <i type="int" name="I_CONSTRAINED_M">     0</i>
  <separator name="electronic exchange-correlation" >
   <i type="string" name="GGA">PE</i>
   <i type="int" name="VOSKOWN">     0</i>
   <i type="logical" name="LHFCALC"> F  </i>
   <i type="string" name="PRECFOCK"></i>
   <i type="logical" name="LSYMGRAD"> F  </i>
   <i type="logical" name="LHFONE"> F  </i>
   <i type="logical" name="LRHFCALC"> F  </i>
   <i type="logical" name="LTHOMAS"> F  </i>
   <i type="logical" name="LMODELHF"> F  </i>
   <i name="ENCUT4O">     -1.00000000</i>
   <i type="int" name="EXXOEP">     0</i>
   <i type="int" name="FOURORBIT">     0</i>
   <i name="AEXX">      0.00000000</i>
   <i name="HFALPHA">      0.00000000</i>
   <i name="MCALPHA">      0.00000000</i>
   <i name="ALDAX">      1.00000000</i>
   <i name="AGGAX">      1.00000000</i>
   <i name="ALDAC">      1.00000000</i>
   <i name="AGGAC">      1.00000000</i>
   <i type="int" name="NKREDX">     1</i>
   <i type="int" name="NKREDY">     1</i>
   <i type="int" name="NKREDZ">     1</i>
   <i type="logical" name="SHIFTRED"> F  </i>
   <i type="logical" name="ODDONLY"> F  </i>
   <i type="logical" name="EVENONLY"> F  </i>
   <i type="int" name="LMAXFOCK">     0</i>
   <i type="int" name="NMAXFOCKAE">     0</i>
   <i type="logical" name="LFOCKAEDFT"> F  </i>
   <i name="HFSCREEN">      0.00000000</i>
   <i name="HFSCREENC">      0.00000000</i>
   <i type="int" name="NBANDSGWLOW">     0</i>
  </separator>
  <separator name="vdW DFT" >
   <i type="logical" name="LUSE_VDW"> F  </i>
   <i name="Zab_VDW">     -0.84910000</i>
   <i name="PARAM1">      0.12340000</i>
   <i name="PARAM2">      1.00000000</i>
   <i name="PARAM3">      0.00000000</i>
  </separator>
  <separator name="model GW" >
   <i type="int" name="MODEL_GW">     0</i>
   <i name="MODEL_EPS0">     16.67765919</i>
   <i name="MODEL_ALPHA">      1.00000000</i>
  </separator>
  <separator name="linear response parameters" >
   <i type="logical" name="LEPSILON"> F  </i>
   <i type="logical" name="LRPA"> F  </i>
   <i type="logical" name="LNABLA"> F  </i>
   <i type="logical" name="LVEL"> F  </i>
   <i type="int" name="KINTER">     0</i>
   <i name="CSHIFT">      0.10000000</i>
   <i name="OMEGAMAX">     -1.00000000</i>
   <i name="DEG_THRESHOLD">      0.00200000</i>
   <i name="RTIME">     -0.10000000</i>
   <i name="WPLASMAI">      0.00000000</i>
   <v name="DFIELD">      0.00000000      0.00000000      0.00000000</v>
   <v name="WPLASMA">      0.00000000      0.00000000      0.00000000      0.00000000      0.00000000      0.00000000      0.00000000      0.00000000      0.00000000</v>
  </separator>
  <separator name="orbital magnetization" >
   <i type="logical" name="NUCIND"> F  </i>
   <v name="MAGPOS">      0.00000000      0.00000000      0.00000000</v>
   <i type="logical" name="LNICSALL"> T  </i>
   <i type="logical" name="ORBITALMAG"> F  </i>
   <i type="logical" name="LMAGBLOCH"> F  </i>
   <i type="logical" name="LCHIMAG"> F  </i>
   <i type="logical" name="LGAUGE"> T  </i>
   <i type="int" name="MAGATOM">     0</i>
   <v name="MAGDIPOL">      0.00000000      0.00000000      0.00000000</v>
   <v name="AVECCONST">      0.00000000      0.00000000      0.00000000</v>
  </separator>
  <separator name="response functions" >
   <i type="logical" name="LADDER"> F  </i>
   <i type="logical" name="LRPAFORCE"> F  </i>
   <i type="logical" name="LFXC"> F  </i>
   <i type="logical" name="LHARTREE"> T  </i>
   <i type="int" name="IBSE">     0</i>
   <v type="int" name="KPOINT">    -1     0     0     0</v>
   <i type="logical" name="LTCTE"> F  </i>
   <i type="logical" name="LTETE"> F  </i>
   <i type="logical" name="LTRIPLET"> F  </i>
   <i type="logical" name="LFXCEPS"> F  </i>
   <i type="logical" name="LFXHEG"> F  </i>
   <i type="int" name="NATURALO">     2</i>
   <i type="logical" name="L2ORDER"> F  </i>
   <i type="logical" name="LMP2LT"> F  </i>
   <i type="logical" name="LUSEW"> F  </i>
   <i name="ENCUTGW">     -2.00000000</i>
   <i name="ENCUTGWSOFT">     -2.00000000</i>
   <i name="ENCUTLF">     -1.00000000</i>
   <i type="int" name="LMAXMP2">    -1</i>
   <i name="SCISSOR">      0.00000000</i>
   <i type="int" name="NOMEGA">     0</i>
   <i type="int" name="NOMEGAR">     0</i>
   <i type="int" name="NBANDSGW">    -1</i>
   <i type="int" name="NBANDSO">    -1</i>
   <i type="int" name="NBANDSV">    -1</i>
   <i type="int" name="NELM">     1</i>
   <i type="int" name="NELMHF">     1</i>
   <i type="int" name="DIM">     3</i>
   <i type="int" name="ANTIRES">     0</i>
   <i name="OMEGAMAX">    -30.00000000</i>
   <i name="OMEGAMIN">    -30.00000000</i>
   <i name="OMEGATL">   -200.00000000</i>
   <i type="int" name="OMEGAGRID">   140</i>
   <i name="CSHIFT">     -0.10000000</i>
   <i type="logical" name="SELFENERGY"> F  </i>
   <i type="logical" name="LSPECTRAL"> F  </i>
   <i type="logical" name="LSPECTRALGW"> F  </i>
   <i type="logical" name="LSINGLES"> F  </i>
   <i type="logical" name="LFERMIGW"> F  </i>
   <i type="logical" name="ODDONLYGW"> F  </i>
   <i type="logical" name="EVENONLYGW"> F  </i>
   <i type="int" name="NKREDLFX">     1</i>
   <i type="int" name="NKREDLFY">     1</i>
   <i type="int" name="NKREDLFZ">     1</i>
   <i type="int" name="MAXMEM">  2800</i>
   <i type="int" name="TELESCOPE">     0</i>
   <i type="int" name="TAUPAR">     1</i>
   <i type="int" name="OMEGAPAR">    -1</i>
   <i name="LAMBDA">      1.00000000</i>
  </separator>
  <separator name="External order field" >
   <i name="OFIELD_KAPPA">      0.00000000</i>
   <v name="OFIELD_K">      0.00000000      0.00000000      0.00000000</v>
   <i name="OFIELD_Q6_NEAR">      0.00000000</i>
   <i name="OFIELD_Q6_FAR">      0.00000000</i>
   <i name="OFIELD_A">      0.00000000</i>
  </separator>
 </parameters>
 <atominfo>
  <atoms>       2 </atoms>
  <types>       2 </types>
  <array name="atoms" >
   <dimension dim="1">ion</dimension>
   <field type="string">element</field>
   <field type="int">atomtype</field>
   <set>
    <rc><c>In</c><c>   1</c></rc>
    <rc><c>As</c><c>   2</c></rc>
   </set>
  </array>
  <array name="atomtypes" >
   <dimension dim="1">type</dimension>
   <field type="int">atomspertype</field>
   <field type="string">element</field>
   <field>mass</field>
   <field>valence</field>
   <field type="string">pseudopotential</field>
   <set>
    <rc><c>   1</c><c>In</c><c>    114.82000000</c><c>      3.00000000</c><c>  PAW_PBE In 08Apr2002                  </c></rc>
    <rc><c>   1</c><c>As</c><c>     74.92200000</c><c>      5.00000000</c><c>  PAW_PBE As 22Sep2009                  </c></rc>
   </set>
  </array>
 </atominfo>
 <structure name="initialpos" >
  <crystal>
   <varray name="basis" >
    <v>       0.00000000       3.02920000       3.02920000 </v>
    <v>       3.02920000       0.00000000       3.02920000 </v>
    <v>       3.02920000       3.02920000       0.00000000 </v>
   </varray>
   <i name="volume">     55.59219731 </i>
   <varray name="rec_basis" >
    <v>      -0.16506008       0.16506008       0.16506008 </v>
    <v>       0.16506008      -0.16506008       0.16506008 </v>
    <v>       0.16506008       0.16506008      -0.16506008 </v>
   </varray>
  </crystal>
  <varray name="positions" >
   <v>       0.00000000       0.00000000       0.00000000 </v>
   <v>       0.25000000       0.25000000       0.25000000 </v>
  </varray>
 </structure>
 <calculation>
  <scstep>
   <time name="total">    1.54    1.55</time>
   <energy>
    <i name="alphaZ">      6.67624893 </i>
    <i name="ewald">   -213.84743004 </i>
    <i name="hartreedc">    -21.29595069 </i>
    <i name="XCdc">    -67.69638858 </i>
    <i name="pawpsdc">    241.28716127 </i>
    <i name="pawaedc">   -161.69725911 </i>
    <i name="eentropy">      0.00000676 </i>
    <i name="bandstr">     -5.48406601 </i>
    <i name="atom">    223.97520926 </i>
    <i name="e_fr_energy">      1.91753180 </i>
    <i name="e_wo_entrp">      1.91752504 </i>
    <i name="e_0_energy">      1.91752954 </i>
   </energy>
  </scstep>
  <scstep>
   <time name="total">    2.77    2.77</time>
   <energy>
    <i name="e_fr_energy">    -13.40628488 </i>
    <i name="e_wo_entrp">    -13.40631375 </i>
    <i name="e_0_energy">    -13.40629450 </i>
   </energy>
  </scstep>
  <scstep>
   <time name="total">    2.78    2.78</time>
   <energy>
    <i name="e_fr_energy">    -13.54427381 </i>
    <i name="e_wo_entrp">    -13.54430066 </i>
    <i name="e_0_energy">    -13.54428276 </i>
   </energy>
  </scstep>
  <scstep>
   <time name="total">    2.76    2.76</time>
   <energy>
    <i name="e_fr_energy">    -13.54522001 </i>
    <i name="e_wo_entrp">    -13.54524686 </i>
    <i name="e_0_energy">    -13.54522896 </i>
   </energy>
  </scstep>
  <scstep>
   <time name="total">    2.81    2.82</time>
   <energy>
    <i name="e_fr_energy">    -13.54522957 </i>
    <i name="e_wo_entrp">    -13.54525642 </i>
    <i name="e_0_energy">    -13.54523852 </i>
   </energy>
  </scstep>
  <scstep>
   <time name="total">    0.28    0.29</time>
   <energy>
    <i name="e_fr_energy">     -9.49977158 </i>
    <i name="e_wo_entrp">     -9.49979843 </i>
    <i name="e_0_energy">     -9.49978053 </i>
   </energy>
  </scstep>
  <scstep>
   <time name="total">    0.27    0.28</time>
   <energy>
    <i name="e_fr_energy">    -11.04569711 </i>
    <i name="e_wo_entrp">    -11.04572395 </i>
    <i name="e_0_energy">    -11.04570606 </i>
   </energy>
  </scstep>
  <scstep>
   <time name="total">    0.27    0.28</time>
   <energy>
    <i name="e_fr_energy">    -11.72681225 </i>
    <i name="e_wo_entrp">    -11.72683909 </i>
    <i name="e_0_energy">    -11.72682120 </i>
   </energy>
  </scstep>
  <scstep>
   <time name="total">    0.27    0.27</time>
   <energy>
    <i name="e_fr_energy">    -11.82996644 </i>
    <i name="e_wo_entrp">    -11.82999395 </i>
    <i name="e_0_energy">    -11.82997561 </i>
   </energy>
  </scstep>
  <scstep>
   <time name="total">    0.27    0.27</time>
   <energy>
    <i name="e_fr_energy">    -11.84106892 </i>
    <i name="e_wo_entrp">    -11.84109747 </i>
    <i name="e_0_energy">    -11.84107843 </i>
   </energy>
  </scstep>
  <scstep>
   <time name="total">    0.27    0.27</time>
   <energy>
    <i name="e_fr_energy">    -11.85603970 </i>
    <i name="e_wo_entrp">    -11.85606676 </i>
    <i name="e_0_energy">    -11.85604872 </i>
   </energy>
  </scstep>
  <scstep>
   <time name="total">    0.27    0.27</time>
   <energy>
    <i name="e_fr_energy">    -11.86429298 </i>
    <i name="e_wo_entrp">    -11.86431984 </i>
    <i name="e_0_energy">    -11.86430193 </i>
   </energy>
  </scstep>
  <scstep>
   <time name="total">    0.27    0.27</time>
   <energy>
    <i name="e_fr_energy">    -11.86663582 </i>
    <i name="e_wo_entrp">    -11.86666266 </i>
    <i name="e_0_energy">    -11.86664477 </i>
   </energy>
  </scstep>
  <scstep>
   <time name="total">    0.27    0.27</time>
   <energy>
    <i name="e_fr_energy">    -11.86760792 </i>
    <i name="e_wo_entrp">    -11.86763477 </i>
    <i name="e_0_energy">    -11.86761687 </i>
   </energy>
  </scstep>
  <scstep>
   <time name="total">    0.27    0.27</time>
   <energy>
    <i name="e_fr_energy">    -11.86820161 </i>
    <i name="e_wo_entrp">    -11.86822846 </i>
    <i name="e_0_energy">    -11.86821056 </i>
   </energy>
  </scstep>
  <scstep>
   <time name="total">    0.27    0.27</time>
   <energy>
    <i name="e_fr_energy">    -11.86841012 </i>
    <i name="e_wo_entrp">    -11.86843696 </i>
    <i name="e_0_energy">    -11.86841907 </i>
   </energy>
  </scstep>
  <scstep>
   <time name="total">    0.42    0.43</time>
   <energy>
    <i name="alphaZ">      6.67624893 </i>
    <i name="ewald">   -213.84743004 </i>
    <i name="hartreedc">    -28.36478994 </i>
    <i name="XCdc">    -66.60829531 </i>
    <i name="pawpsdc">    502.38237017 </i>
    <i name="pawaedc">   -424.69255633 </i>
    <i name="eentropy">      0.00002684 </i>
    <i name="bandstr">    -11.38922585 </i>
    <i name="atom">    223.97520926 </i>
    <i name="e_fr_energy">    -11.86844227 </i>
    <i name="e_wo_entrp">    -11.86846911 </i>
    <i name="e_0_energy">    -11.86845122 </i>
   </energy>
  </scstep>
  <structure>
   <crystal>
    <varray name="basis" >
     <v>       0.00000000       3.02920000       3.02920000 </v>
     <v>       3.02920000       0.00000000       3.02920000 </v>
     <v>       3.02920000       3.02920000       0.00000000 </v>
    </varray>
    <i name="volume">     55.59219731 </i>
    <varray name="rec_basis" >
     <v>      -0.16506008       0.16506008       0.16506008 </v>
     <v>       0.16506008      -0.16506008       0.16506008 </v>
     <v>       0.16506008       0.16506008      -0.16506008 </v>
    </varray>
   </crystal>
   <varray name="positions" >
    <v>       0.00000000       0.00000000       0.00000000 </v>
    <v>       0.25000000       0.25000000       0.25000000 </v>
   </varray>
  </structure>
  <varray name="forces" >
   <v>       0.00000000       0.00000000       0.00000000 </v>
   <v>      -0.00000000      -0.00000000      -0.00000000 </v>
  </varray>
  <varray name="stress" >
   <v>      66.38426792      -0.00000000      -0.00000000 </v>
   <v>      -0.00000000      66.38426792       0.00000000 </v>
   <v>       0.00000000      -0.00000000      66.38426792 </v>
  </varray>
  <energy>
   <i name="e_fr_energy">    -11.86844227 </i>
   <i name="e_wo_entrp">    -11.86845122 </i>
   <i name="e_0_energy">      0.00002684 </i>
  </energy>
  <time name="totalsc">   16.66   17.04</time>
  <eigenvalues>
   <array>
    <dimension dim="1">band</dimension>
    <dimension dim="2">kpoint</dimension>
    <dimension dim="3">spin</dimension>
    <field>eigene</field>
    <field>occ</field>
    <set>
     <set comment="spin 1">
      <set comment="kpoint 1">
       <r>   -8.1392    1.0000 </r>
       <r>   -8.1392    1.0000 </r>
       <r>    2.7591    1.0000 </r>
       <r>    2.7591    1.0000 </r>
       <r>    3.0274    1.0000 </r>
       <r>    3.0274    1.0000 </r>
       <r>    3.0274    1.0000 </r>
       <r>    3.0274    1.0000 </r>
       <r>    3.2545   -0.0000 </r>
       <r>    3.2545   -0.0000 </r>
       <r>    7.5507    0.0000 </r>
       <r>    7.5507    0.0000 </r>
       <r>    8.0690    0.0000 </r>
       <r>    8.0690    0.0000 </r>
       <r>    8.0690    0.0000 </r>
       <r>    8.0690    0.0000 </r>
       <r>   10.7101    0.0000 </r>
       <r>   10.7101    0.0000 </r>
       <r>   12.8597    0.0000 </r>
       <r>   12.8597    0.0000 </r>
       <r>   12.8597    0.0000 </r>
       <r>   12.8597    0.0000 </r>
       <r>   13.6178    0.0000 </r>
       <r>   13.6178    0.0000 </r>
       <r>   13.6542    0.0000 </r>
       <r>   13.6542    0.0000 </r>
       <r>   13.6542    0.0000 </r>
       <r>   13.6542    0.0000 </r>
       <r>   16.1582    0.0000 </r>
       <r>   16.1582    0.0000 </r>
       <r>   24.3980    0.0000 </r>
       <r>   24.3980    0.0000 </r>
       <r>   24.3980    0.0000 </r>
       <r>   24.3980    0.0000 </r>
       <r>   24.5634    0.0000 </r>
       <r>   24.5634    0.0000 </r>
       <r>   25.7830    0.0000 </r>
       <r>   25.7830    0.0000 </r>
       <r>   25.7830    0.0000 </r>
       <r>   25.7830    0.0000 </r>
       <r>   25.8827    0.0000 </r>
       <r>   25.8827    0.0000 </r>
       <r>   25.8827    0.0000 </r>
       <r>   25.8827    0.0000 </r>
       <r>   25.8827    0.0000 </r>
       <r>   25.8827    0.0000 </r>
       <r>   25.8889    0.0000 </r>
       <r>   25.8889    0.0000 </r>
       <r>   26.3628    0.0000 </r>
       <r>   26.3628    0.0000 </r>
       <r>   26.3628    0.0000 </r>
       <r>   26.3628    0.0000 </r>
       <r>   33.4071    0.0000 </r>
       <r>   33.4775    0.0000 </r>
       <r>   33.5383    0.0000 </r>
       <r>   33.8238    0.0000 </r>
      </set>
      <set comment="kpoint 2">
       <r>   -7.8706    1.0000 </r>
       <r>   -7.8706    1.0000 </r>
       <r>    0.7492    1.0000 </r>
       <r>    0.7492    1.0000 </r>
       <r>    2.6158    1.0000 </r>
       <r>    2.6158    1.0000 </r>
       <r>    2.8009    1.0000 </r>
       <r>    2.8090    1.0000 </r>
       <r>    4.5848    0.0000 </r>
       <r>    4.5848    0.0000 </r>
       <r>    7.7422    0.0000 </r>
       <r>    7.7422    0.0000 </r>
       <r>    8.1467    0.0000 </r>
       <r>    8.1467    0.0000 </r>
       <r>    8.4119    0.0000 </r>
       <r>    8.4125    0.0000 </r>
       <r>   11.8041    0.0000 </r>
       <r>   11.8344    0.0000 </r>
       <r>   11.8344    0.0000 </r>
       <r>   11.8761    0.0000 </r>
       <r>   11.9011    0.0000 </r>
       <r>   11.9011    0.0000 </r>
       <r>   13.3455    0.0000 </r>
       <r>   13.3455    0.0000 </r>
       <r>   15.6540    0.0000 </r>
       <r>   15.6669    0.0000 </r>
       <r>   15.6669    0.0000 </r>
       <r>   15.7317    0.0000 </r>
       <r>   18.1086    0.0000 </r>
       <r>   18.1086    0.0000 </r>
       <r>   21.3635    0.0000 </r>
       <r>   21.3635    0.0000 </r>
       <r>   21.4972    0.0000 </r>
       <r>   21.5450    0.0000 </r>
       <r>   21.9225    0.0000 </r>
       <r>   21.9225    0.0000 </r>
       <r>   25.0066    0.0000 </r>
       <r>   25.0927    0.0000 </r>
       <r>   25.2490    0.0000 </r>
       <r>   25.2490    0.0000 </r>
       <r>   26.1059    0.0000 </r>
       <r>   26.1059    0.0000 </r>
       <r>   26.1138    0.0000 </r>
       <r>   26.1138    0.0000 </r>
       <r>   26.3079    0.0000 </r>
       <r>   26.3311    0.0000 </r>
       <r>   27.2324    0.0000 </r>
       <r>   27.2324    0.0000 </r>
       <r>   29.8027    0.0000 </r>
       <r>   29.8042    0.0000 </r>
       <r>   29.8743    0.0000 </r>
       <r>   29.9156    0.0000 </r>
       <r>   30.6625    0.0000 </r>
       <r>   30.6851    0.0000 </r>
       <r>   31.9872    0.0000 </r>
       <r>   32.1650    0.0000 </r>
      </set>
      <set comment="kpoint 3">
       <r>   -7.1769    1.0000 </r>
       <r>   -7.1769    1.0000 </r>
       <r>   -1.4503    1.0000 </r>
       <r>   -1.4503    1.0000 </r>
       <r>    2.2347    1.0000 </r>
       <r>    2.2347    1.0000 </r>
       <r>    2.4354    1.0000 </r>
       <r>    2.4423    1.0000 </r>
       <r>    4.5309    0.0000 </r>
       <r>    4.5309    0.0000 </r>
       <r>    8.3160    0.0000 </r>
       <r>    8.3160    0.0000 </r>
       <r>    8.5564    0.0000 </r>
       <r>    8.5566    0.0000 </r>
       <r>    9.2351    0.0000 </r>
       <r>    9.2351    0.0000 </r>
       <r>   11.4181    0.0000 </r>
       <r>   11.4181    0.0000 </r>
       <r>   12.3388    0.0000 </r>
       <r>   12.3388    0.0000 </r>
       <r>   12.3896    0.0000 </r>
       <r>   12.4548    0.0000 </r>
       <r>   16.3051    0.0000 </r>
       <r>   16.3051    0.0000 </r>
       <r>   17.7254    0.0000 </r>
       <r>   17.7254    0.0000 </r>
       <r>   17.8071    0.0000 </r>
       <r>   17.9007    0.0000 </r>
       <r>   18.5293    0.0000 </r>
       <r>   18.5293    0.0000 </r>
       <r>   18.7867    0.0000 </r>
       <r>   18.7867    0.0000 </r>
       <r>   18.8007    0.0000 </r>
       <r>   18.8354    0.0000 </r>
       <r>   21.7945    0.0000 </r>
       <r>   21.7945    0.0000 </r>
       <r>   25.0167    0.0000 </r>
       <r>   25.2036    0.0000 </r>
       <r>   25.2401    0.0000 </r>
       <r>   25.2401    0.0000 </r>
       <r>   25.6072    0.0000 </r>
       <r>   25.6073    0.0000 </r>
       <r>   26.4206    0.0000 </r>
       <r>   26.4338    0.0000 </r>
       <r>   26.4339    0.0000 </r>
       <r>   26.5177    0.0000 </r>
       <r>   26.6522    0.0000 </r>
       <r>   26.6522    0.0000 </r>
       <r>   27.5534    0.0000 </r>
       <r>   27.5536    0.0000 </r>
       <r>   27.6612    0.0000 </r>
       <r>   27.6700    0.0000 </r>
       <r>   29.0765    0.0000 </r>
       <r>   29.0780    0.0000 </r>
       <r>   31.2438    0.0000 </r>
       <r>   31.4109    0.0000 </r>
      </set>
      <set comment="kpoint 4">
       <r>   -6.6726    1.0000 </r>
       <r>   -6.6726    1.0000 </r>
       <r>   -2.4993    1.0000 </r>
       <r>   -2.4993    1.0000 </r>
       <r>    2.0734    1.0000 </r>
       <r>    2.0734    1.0000 </r>
       <r>    2.2828    1.0000 </r>
       <r>    2.2828    1.0000 </r>
       <r>    4.3628   -0.0000 </r>
       <r>    4.3628   -0.0000 </r>
       <r>    8.2379    0.0000 </r>
       <r>    8.2379    0.0000 </r>
       <r>    8.4259    0.0000 </r>
       <r>    8.4259    0.0000 </r>
       <r>    9.8948    0.0000 </r>
       <r>    9.8948    0.0000 </r>
       <r>   12.0606    0.0000 </r>
       <r>   12.0606    0.0000 </r>
       <r>   14.0731    0.0000 </r>
       <r>   14.0731    0.0000 </r>
       <r>   14.2666    0.0000 </r>
       <r>   14.2666    0.0000 </r>
       <r>   15.1742    0.0000 </r>
       <r>   15.1742    0.0000 </r>
       <r>   15.2577    0.0000 </r>
       <r>   15.2577    0.0000 </r>
       <r>   15.4389    0.0000 </r>
       <r>   15.4389    0.0000 </r>
       <r>   20.9479    0.0000 </r>
       <r>   20.9479    0.0000 </r>
       <r>   21.8470    0.0000 </r>
       <r>   21.8470    0.0000 </r>
       <r>   21.9810    0.0000 </r>
       <r>   21.9810    0.0000 </r>
       <r>   22.0081    0.0000 </r>
       <r>   22.0081    0.0000 </r>
       <r>   22.7217    0.0000 </r>
       <r>   22.7217    0.0000 </r>
       <r>   22.7413    0.0000 </r>
       <r>   22.7414    0.0000 </r>
       <r>   25.2944    0.0000 </r>
       <r>   25.2944    0.0000 </r>
       <r>   26.0431    0.0000 </r>
       <r>   26.0431    0.0000 </r>
       <r>   26.2548    0.0000 </r>
       <r>   26.2548    0.0000 </r>
       <r>   26.8143    0.0000 </r>
       <r>   26.8143    0.0000 </r>
       <r>   26.9626    0.0000 </r>
       <r>   26.9627    0.0000 </r>
       <r>   27.0087    0.0000 </r>
       <r>   27.0093    0.0000 </r>
       <r>   27.0876    0.0000 </r>
       <r>   27.0877    0.0000 </r>
       <r>   30.4510    0.0000 </r>
       <r>   30.5906    0.0000 </r>
      </set>
      <set comment="kpoint 5">
       <r>   -7.1769    1.0000 </r>
       <r>   -7.1769    1.0000 </r>
       <r>   -1.4503    1.0000 </r>
       <r>   -1.4503    1.0000 </r>
       <r>    2.2347    1.0000 </r>
       <r>    2.2347    1.0000 </r>
       <r>    2.4354    1.0000 </r>
       <r>    2.4423    1.0000 </r>
       <r>    4.5309    0.0000 </r>
       <r>    4.5309    0.0000 </r>
       <r>    8.3160    0.0000 </r>
       <r>    8.3160    0.0000 </r>
       <r>    8.5564    0.0000 </r>
       <r>    8.5566    0.0000 </r>
       <r>    9.2351    0.0000 </r>
       <r>    9.2351    0.0000 </r>
       <r>   11.4181    0.0000 </r>
       <r>   11.4181    0.0000 </r>
       <r>   12.3388    0.0000 </r>
       <r>   12.3388    0.0000 </r>
       <r>   12.3896    0.0000 </r>
       <r>   12.4548    0.0000 </r>
       <r>   16.3051    0.0000 </r>
       <r>   16.3051    0.0000 </r>
       <r>   17.7254    0.0000 </r>
       <r>   17.7254    0.0000 </r>
       <r>   17.8071    0.0000 </r>
       <r>   17.9007    0.0000 </r>
       <r>   18.5293    0.0000 </r>
       <r>   18.5293    0.0000 </r>
       <r>   18.7867    0.0000 </r>
       <r>   18.7867    0.0000 </r>
       <r>   18.8007    0.0000 </r>
       <r>   18.8354    0.0000 </r>
       <r>   21.7945    0.0000 </r>
       <r>   21.7945    0.0000 </r>
       <r>   25.0167    0.0000 </r>
       <r>   25.2036    0.0000 </r>
       <r>   25.2401    0.0000 </r>
       <r>   25.2401    0.0000 </r>
       <r>   25.6072    0.0000 </r>
       <r>   25.6072    0.0000 </r>
       <r>   26.4205    0.0000 </r>
       <r>   26.4338    0.0000 </r>
       <r>   26.4338    0.0000 </r>
       <r>   26.5177    0.0000 </r>
       <r>   26.6522    0.0000 </r>
       <r>   26.6522    0.0000 </r>
       <r>   27.5534    0.0000 </r>
       <r>   27.5535    0.0000 </r>
       <r>   27.6612    0.0000 </r>
       <r>   27.6700    0.0000 </r>
       <r>   29.0765    0.0000 </r>
       <r>   29.0798    0.0000 </r>
       <r>   31.2252    0.0000 </r>
       <r>   31.3344    0.0000 </r>
      </set>
      <set comment="kpoint 6">
       <r>   -7.8706    1.0000 </r>
       <r>   -7.8706    1.0000 </r>
       <r>    0.7492    1.0000 </r>
       <r>    0.7492    1.0000 </r>
       <r>    2.6158    1.0000 </r>
       <r>    2.6158    1.0000 </r>
       <r>    2.8009    1.0000 </r>
       <r>    2.8090    1.0000 </r>
       <r>    4.5848    0.0000 </r>
       <r>    4.5848    0.0000 </r>
       <r>    7.7422    0.0000 </r>
       <r>    7.7422    0.0000 </r>
       <r>    8.1467    0.0000 </r>
       <r>    8.1467    0.0000 </r>
       <r>    8.4119    0.0000 </r>
       <r>    8.4125    0.0000 </r>
       <r>   11.8041    0.0000 </r>
       <r>   11.8344    0.0000 </r>
       <r>   11.8344    0.0000 </r>
       <r>   11.8761    0.0000 </r>
       <r>   11.9011    0.0000 </r>
       <r>   11.9011    0.0000 </r>
       <r>   13.3455    0.0000 </r>
       <r>   13.3455    0.0000 </r>
       <r>   15.6540    0.0000 </r>
       <r>   15.6669    0.0000 </r>
       <r>   15.6669    0.0000 </r>
       <r>   15.7317    0.0000 </r>
       <r>   18.1086    0.0000 </r>
       <r>   18.1086    0.0000 </r>
       <r>   21.3635    0.0000 </r>
       <r>   21.3635    0.0000 </r>
       <r>   21.4972    0.0000 </r>
       <r>   21.5450    0.0000 </r>
       <r>   21.9225    0.0000 </r>
       <r>   21.9225    0.0000 </r>
       <r>   25.0066    0.0000 </r>
       <r>   25.0927    0.0000 </r>
       <r>   25.2490    0.0000 </r>
       <r>   25.2490    0.0000 </r>
       <r>   26.1059    0.0000 </r>
       <r>   26.1059    0.0000 </r>
       <r>   26.1138    0.0000 </r>
       <r>   26.1138    0.0000 </r>
       <r>   26.3079    0.0000 </r>
       <r>   26.3311    0.0000 </r>
       <r>   27.2324    0.0000 </r>
       <r>   27.2324    0.0000 </r>
       <r>   29.8036    0.0000 </r>
       <r>   29.8089    0.0000 </r>
       <r>   29.8728    0.0000 </r>
       <r>   29.9172    0.0000 </r>
       <r>   30.6615    0.0000 </r>
       <r>   30.6723    0.0000 </r>
       <r>   32.0307    0.0000 </r>
       <r>   32.1254    0.0000 </r>
      </set>
      <set comment="kpoint 7">
       <r>   -7.7788    1.0000 </r>
       <r>   -7.7788    1.0000 </r>
       <r>    0.6756    1.0000 </r>
       <r>    0.6756    1.0000 </r>
       <r>    2.2489    1.0000 </r>
       <r>    2.2489    1.0000 </r>
       <r>    2.3531    1.0000 </r>
       <r>    2.3531    1.0000 </r>
       <r>    5.2932    0.0000 </r>
       <r>    5.2932    0.0000 </r>
       <r>    6.6768    0.0000 </r>
       <r>    6.6768    0.0000 </r>
       <r>    8.7869    0.0000 </r>
       <r>    8.7869    0.0000 </r>
       <r>    9.0455    0.0000 </r>
       <r>    9.0455    0.0000 </r>
       <r>   10.3595    0.0000 </r>
       <r>   10.3595    0.0000 </r>
       <r>   12.8591    0.0000 </r>
       <r>   12.8591    0.0000 </r>
       <r>   13.1662    0.0000 </r>
       <r>   13.1662    0.0000 </r>
       <r>   14.4644    0.0000 </r>
       <r>   14.4644    0.0000 </r>
       <r>   14.5074    0.0000 </r>
       <r>   14.5074    0.0000 </r>
       <r>   15.1611    0.0000 </r>
       <r>   15.1611    0.0000 </r>
       <r>   19.2108    0.0000 </r>
       <r>   19.2108    0.0000 </r>
       <r>   21.1231    0.0000 </r>
       <r>   21.1231    0.0000 </r>
       <r>   21.3199    0.0000 </r>
       <r>   21.3199    0.0000 </r>
       <r>   21.8760    0.0000 </r>
       <r>   21.8760    0.0000 </r>
       <r>   22.6767    0.0000 </r>
       <r>   22.6767    0.0000 </r>
       <r>   25.1768    0.0000 </r>
       <r>   25.1769    0.0000 </r>
       <r>   25.8299    0.0000 </r>
       <r>   25.8299    0.0000 </r>
       <r>   26.0103    0.0000 </r>
       <r>   26.0104    0.0000 </r>
       <r>   27.1307    0.0000 </r>
       <r>   27.1308    0.0000 </r>
       <r>   29.3836    0.0000 </r>
       <r>   29.3973    0.0000 </r>
       <r>   29.4758    0.0000 </r>
       <r>   29.4962    0.0000 </r>
       <r>   30.2379    0.0000 </r>
       <r>   30.2708    0.0000 </r>
       <r>   30.3088    0.0000 </r>
       <r>   30.3464    0.0000 </r>
       <r>   31.2476    0.0000 </r>
       <r>   31.9109    0.0000 </r>
      </set>
      <set comment="kpoint 8">
       <r>   -7.2130    1.0000 </r>
       <r>   -7.2088    1.0000 </r>
       <r>   -0.9739    1.0000 </r>
       <r>   -0.9736    1.0000 </r>
       <r>    1.6458    1.0000 </r>
       <r>    1.6774    1.0000 </r>
       <r>    1.9072    1.0000 </r>
       <r>    1.9087    1.0000 </r>
       <r>    5.6011    0.0000 </r>
       <r>    5.6361    0.0000 </r>
       <r>    6.9659    0.0000 </r>
       <r>    7.0205    0.0000 </r>
       <r>    8.8461    0.0000 </r>
       <r>    8.8840    0.0000 </r>
       <r>    9.4611    0.0000 </r>
       <r>    9.4722    0.0000 </r>
       <r>   11.1949    0.0000 </r>
       <r>   11.2099    0.0000 </r>
       <r>   13.3243    0.0000 </r>
       <r>   13.3572    0.0000 </r>
       <r>   13.3854    0.0000 </r>
       <r>   13.4221    0.0000 </r>
       <r>   15.7228    0.0000 </r>
       <r>   15.7527    0.0000 </r>
       <r>   16.7302    0.0000 </r>
       <r>   16.7752    0.0000 </r>
       <r>   17.7745    0.0000 </r>
       <r>   17.7804    0.0000 </r>
       <r>   17.9797    0.0000 </r>
       <r>   18.0263    0.0000 </r>
       <r>   18.1363    0.0000 </r>
       <r>   18.1385    0.0000 </r>
       <r>   21.4676    0.0000 </r>
       <r>   21.5963    0.0000 </r>
       <r>   22.0064    0.0000 </r>
       <r>   22.0534    0.0000 </r>
       <r>   22.3976    0.0000 </r>
       <r>   22.4046    0.0000 </r>
       <r>   23.1371    0.0000 </r>
       <r>   23.1594    0.0000 </r>
       <r>   25.5971    0.0000 </r>
       <r>   25.6421    0.0000 </r>
       <r>   25.9759    0.0000 </r>
       <r>   25.9870    0.0000 </r>
       <r>   26.6637    0.0000 </r>
       <r>   26.6645    0.0000 </r>
       <r>   28.1123    0.0000 </r>
       <r>   28.1811    0.0000 </r>
       <r>   28.6051    0.0000 </r>
       <r>   28.6186    0.0000 </r>
       <r>   29.4786    0.0000 </r>
       <r>   29.4914    0.0000 </r>
       <r>   29.8681    0.0000 </r>
       <r>   30.0546    0.0000 </r>
       <r>   30.2175    0.0000 </r>
       <r>   30.5143    0.0000 </r>
      </set>
      <set comment="kpoint 9">
       <r>   -6.5580    1.0000 </r>
       <r>   -6.5451    1.0000 </r>
       <r>   -2.3379    1.0000 </r>
       <r>   -2.3210    1.0000 </r>
       <r>    1.0398    1.0000 </r>
       <r>    1.0658    1.0000 </r>
       <r>    1.8317    1.0000 </r>
       <r>    1.8357    1.0000 </r>
       <r>    5.5007    0.0000 </r>
       <r>    5.5187    0.0000 </r>
       <r>    7.6150    0.0000 </r>
       <r>    7.6569    0.0000 </r>
       <r>    9.1551    0.0000 </r>
       <r>    9.1691    0.0000 </r>
       <r>    9.7056    0.0000 </r>
       <r>    9.7907    0.0000 </r>
       <r>   12.1084    0.0000 </r>
       <r>   12.2255    0.0000 </r>
       <r>   13.5926    0.0000 </r>
       <r>   13.6352    0.0000 </r>
       <r>   14.2392    0.0000 </r>
       <r>   14.2722    0.0000 </r>
       <r>   15.2526    0.0000 </r>
       <r>   15.3217    0.0000 </r>
       <r>   15.5535    0.0000 </r>
       <r>   15.5841    0.0000 </r>
       <r>   18.4146    0.0000 </r>
       <r>   18.5560    0.0000 </r>
       <r>   19.8562    0.0000 </r>
       <r>   19.9129    0.0000 </r>
       <r>   20.0330    0.0000 </r>
       <r>   20.0767    0.0000 </r>
       <r>   21.0470    0.0000 </r>
       <r>   21.0513    0.0000 </r>
       <r>   22.0199    0.0000 </r>
       <r>   22.0463    0.0000 </r>
       <r>   22.5084    0.0000 </r>
       <r>   22.5683    0.0000 </r>
       <r>   23.4129    0.0000 </r>
       <r>   23.4154    0.0000 </r>
       <r>   24.2269    0.0000 </r>
       <r>   24.3656    0.0000 </r>
       <r>   25.2040    0.0000 </r>
       <r>   25.2382    0.0000 </r>
       <r>   25.8528    0.0000 </r>
       <r>   25.8572    0.0000 </r>
       <r>   26.3534    0.0000 </r>
       <r>   26.4188    0.0000 </r>
       <r>   26.9266    0.0000 </r>
       <r>   27.0456    0.0000 </r>
       <r>   28.1654    0.0000 </r>
       <r>   28.2458    0.0000 </r>
       <r>   28.4981    0.0000 </r>
       <r>   28.5966    0.0000 </r>
       <r>   29.3005    0.0000 </r>
       <r>   29.9834    0.0000 </r>
      </set>
      <set comment="kpoint 10">
       <r>   -6.7432    1.0000 </r>
       <r>   -6.7318    1.0000 </r>
       <r>   -1.9941    1.0000 </r>
       <r>   -1.9778    1.0000 </r>
       <r>    0.9016    1.0000 </r>
       <r>    0.9214    1.0000 </r>
       <r>    2.1450    1.0000 </r>
       <r>    2.1526    1.0000 </r>
       <r>    5.5813    0.0000 </r>
       <r>    5.6119    0.0000 </r>
       <r>    7.8986    0.0000 </r>
       <r>    7.9304    0.0000 </r>
       <r>    8.8638    0.0000 </r>
       <r>    8.8747    0.0000 </r>
       <r>    9.4050    0.0000 </r>
       <r>    9.4727    0.0000 </r>
       <r>   11.9198    0.0000 </r>
       <r>   11.9449    0.0000 </r>
       <r>   12.7481    0.0000 </r>
       <r>   12.8608    0.0000 </r>
       <r>   13.9079    0.0000 </r>
       <r>   14.0055    0.0000 </r>
       <r>   15.2520    0.0000 </r>
       <r>   15.3605    0.0000 </r>
       <r>   17.1444    0.0000 </r>
       <r>   17.1758    0.0000 </r>
       <r>   18.2434    0.0000 </r>
       <r>   18.2686    0.0000 </r>
       <r>   18.4486    0.0000 </r>
       <r>   18.5141    0.0000 </r>
       <r>   19.7850    0.0000 </r>
       <r>   19.8075    0.0000 </r>
       <r>   21.3005    0.0000 </r>
       <r>   21.3538    0.0000 </r>
       <r>   22.5447    0.0000 </r>
       <r>   22.5752    0.0000 </r>
       <r>   22.7739    0.0000 </r>
       <r>   22.9470    0.0000 </r>
       <r>   23.8340    0.0000 </r>
       <r>   23.9569    0.0000 </r>
       <r>   24.2002    0.0000 </r>
       <r>   24.2381    0.0000 </r>
       <r>   24.4935    0.0000 </r>
       <r>   24.5206    0.0000 </r>
       <r>   26.1918    0.0000 </r>
       <r>   26.2626    0.0000 </r>
       <r>   26.4839    0.0000 </r>
       <r>   26.5577    0.0000 </r>
       <r>   26.9898    0.0000 </r>
       <r>   27.0058    0.0000 </r>
       <r>   28.1541    0.0000 </r>
       <r>   28.1679    0.0000 </r>
       <r>   28.6546    0.0000 </r>
       <r>   28.7014    0.0000 </r>
       <r>   30.4555    0.0000 </r>
       <r>   30.8255    0.0000 </r>
      </set>
      <set comment="kpoint 11">
       <r>   -7.4525    1.0000 </r>
       <r>   -7.4488    1.0000 </r>
       <r>   -0.4518    1.0000 </r>
       <r>   -0.4515    1.0000 </r>
       <r>    1.5190    1.0000 </r>
       <r>    1.5406    1.0000 </r>
       <r>    2.6065    1.0000 </r>
       <r>    2.6169    1.0000 </r>
       <r>    5.4524    0.0000 </r>
       <r>    5.4980    0.0000 </r>
       <r>    7.6397    0.0000 </r>
       <r>    7.8141    0.0000 </r>
       <r>    8.3924    0.0000 </r>
       <r>    8.4784    0.0000 </r>
       <r>    8.6589    0.0000 </r>
       <r>    8.7002    0.0000 </r>
       <r>   10.9731    0.0000 </r>
       <r>   11.0063    0.0000 </r>
       <r>   12.4888    0.0000 </r>
       <r>   12.4925    0.0000 </r>
       <r>   13.4331    0.0000 </r>
       <r>   13.4795    0.0000 </r>
       <r>   14.5047    0.0000 </r>
       <r>   14.5432    0.0000 </r>
       <r>   15.9958    0.0000 </r>
       <r>   16.0762    0.0000 </r>
       <r>   17.6437    0.0000 </r>
       <r>   17.7477    0.0000 </r>
       <r>   18.2296    0.0000 </r>
       <r>   18.2806    0.0000 </r>
       <r>   20.3287    0.0000 </r>
       <r>   20.3683    0.0000 </r>
       <r>   21.4944    0.0000 </r>
       <r>   21.5531    0.0000 </r>
       <r>   21.7197    0.0000 </r>
       <r>   21.7201    0.0000 </r>
       <r>   21.9710    0.0000 </r>
       <r>   22.0160    0.0000 </r>
       <r>   23.1486    0.0000 </r>
       <r>   23.2651    0.0000 </r>
       <r>   25.9388    0.0000 </r>
       <r>   26.0284    0.0000 </r>
       <r>   26.4038    0.0000 </r>
       <r>   26.4273    0.0000 </r>
       <r>   27.2366    0.0000 </r>
       <r>   27.3525    0.0000 </r>
       <r>   28.2773    0.0000 </r>
       <r>   28.3006    0.0000 </r>
       <r>   29.4138    0.0000 </r>
       <r>   29.4668    0.0000 </r>
       <r>   29.7261    0.0000 </r>
       <r>   29.7689    0.0000 </r>
       <r>   30.4617    0.0000 </r>
       <r>   30.6063    0.0000 </r>
       <r>   31.2588    0.0000 </r>
       <r>   31.3777    0.0000 </r>
      </set>
      <set comment="kpoint 12">
       <r>   -6.8111    1.0000 </r>
       <r>   -6.8111    1.0000 </r>
       <r>   -1.5467    1.0000 </r>
       <r>   -1.5467    1.0000 </r>
       <r>    1.3676    1.0000 </r>
       <r>    1.3676    1.0000 </r>
       <r>    1.4066    1.0000 </r>
       <r>    1.4066    1.0000 </r>
       <r>    5.3221    0.0000 </r>
       <r>    5.3221    0.0000 </r>
       <r>    5.8647    0.0000 </r>
       <r>    5.8647    0.0000 </r>
       <r>   10.5168    0.0000 </r>
       <r>   10.5168    0.0000 </r>
       <r>   10.8761    0.0000 </r>
       <r>   10.8761    0.0000 </r>
       <r>   11.0747    0.0000 </r>
       <r>   11.0747    0.0000 </r>
       <r>   14.0524    0.0000 </r>
       <r>   14.0524    0.0000 </r>
       <r>   15.8131    0.0000 </r>
       <r>   15.8131    0.0000 </r>
       <r>   16.7920    0.0000 </r>
       <r>   16.7920    0.0000 </r>
       <r>   16.8664    0.0000 </r>
       <r>   16.8664    0.0000 </r>
       <r>   17.4562    0.0000 </r>
       <r>   17.4562    0.0000 </r>
       <r>   17.6943    0.0000 </r>
       <r>   17.6943    0.0000 </r>
       <r>   17.8671    0.0000 </r>
       <r>   17.8671    0.0000 </r>
       <r>   18.7476    0.0000 </r>
       <r>   18.7476    0.0000 </r>
       <r>   19.4851    0.0000 </r>
       <r>   19.4851    0.0000 </r>
       <r>   24.3671    0.0000 </r>
       <r>   24.3671    0.0000 </r>
       <r>   24.7487    0.0000 </r>
       <r>   24.7487    0.0000 </r>
       <r>   24.8569    0.0000 </r>
       <r>   24.8569    0.0000 </r>
       <r>   24.8806    0.0000 </r>
       <r>   24.8806    0.0000 </r>
       <r>   26.3884    0.0000 </r>
       <r>   26.3884    0.0000 </r>
       <r>   26.5351    0.0000 </r>
       <r>   26.5351    0.0000 </r>
       <r>   27.4756    0.0000 </r>
       <r>   27.4757    0.0000 </r>
       <r>   27.6170    0.0000 </r>
       <r>   27.6170    0.0000 </r>
       <r>   28.4657    0.0000 </r>
       <r>   28.4658    0.0000 </r>
       <r>   31.5327    0.0000 </r>
       <r>   31.6885    0.0000 </r>
      </set>
      <set comment="kpoint 13">
       <r>   -6.2432    1.0000 </r>
       <r>   -6.2276    1.0000 </r>
       <r>   -2.4378    1.0000 </r>
       <r>   -2.4187    1.0000 </r>
       <r>    0.5697    1.0000 </r>
       <r>    0.5987    1.0000 </r>
       <r>    1.2630    1.0000 </r>
       <r>    1.2661    1.0000 </r>
       <r>    5.4190    0.0000 </r>
       <r>    5.4307    0.0000 </r>
       <r>    6.4725    0.0000 </r>
       <r>    6.4744    0.0000 </r>
       <r>   10.2447    0.0000 </r>
       <r>   10.3270    0.0000 </r>
       <r>   11.1038    0.0000 </r>
       <r>   11.1220    0.0000 </r>
       <r>   12.2935    0.0000 </r>
       <r>   12.4171    0.0000 </r>
       <r>   14.6237    0.0000 </r>
       <r>   14.6621    0.0000 </r>
       <r>   15.3906    0.0000 </r>
       <r>   15.5224    0.0000 </r>
       <r>   15.8298    0.0000 </r>
       <r>   15.8369    0.0000 </r>
       <r>   16.4457    0.0000 </r>
       <r>   16.4884    0.0000 </r>
       <r>   18.1535    0.0000 </r>
       <r>   18.1901    0.0000 </r>
       <r>   18.6674    0.0000 </r>
       <r>   18.7397    0.0000 </r>
       <r>   19.5645    0.0000 </r>
       <r>   19.5827    0.0000 </r>
       <r>   19.9175    0.0000 </r>
       <r>   19.9693    0.0000 </r>
       <r>   20.7819    0.0000 </r>
       <r>   20.8045    0.0000 </r>
       <r>   21.4113    0.0000 </r>
       <r>   21.5038    0.0000 </r>
       <r>   23.1285    0.0000 </r>
       <r>   23.1604    0.0000 </r>
       <r>   23.2855    0.0000 </r>
       <r>   23.3930    0.0000 </r>
       <r>   23.9970    0.0000 </r>
       <r>   24.0770    0.0000 </r>
       <r>   25.7092    0.0000 </r>
       <r>   25.7813    0.0000 </r>
       <r>   26.1535    0.0000 </r>
       <r>   26.1559    0.0000 </r>
       <r>   27.4403    0.0000 </r>
       <r>   27.4669    0.0000 </r>
       <r>   27.9695    0.0000 </r>
       <r>   28.0206    0.0000 </r>
       <r>   29.4620    0.0000 </r>
       <r>   29.5783    0.0000 </r>
       <r>   29.8406    0.0000 </r>
       <r>   30.7612    0.0000 </r>
      </set>
      <set comment="kpoint 14">
       <r>   -6.2081    1.0000 </r>
       <r>   -6.1833    1.0000 </r>
       <r>   -2.4742    1.0000 </r>
       <r>   -2.4376    1.0000 </r>
       <r>    0.0187    1.0000 </r>
       <r>    0.0396    1.0000 </r>
       <r>    1.5891    1.0000 </r>
       <r>    1.5942    1.0000 </r>
       <r>    5.7018    0.0000 </r>
       <r>    5.7321    0.0000 </r>
       <r>    7.9753    0.0000 </r>
       <r>    8.0750    0.0000 </r>
       <r>   10.0533    0.0000 </r>
       <r>   10.1632    0.0000 </r>
       <r>   10.1712    0.0000 </r>
       <r>   10.2385    0.0000 </r>
       <r>   10.9621    0.0000 </r>
       <r>   11.1198    0.0000 </r>
       <r>   12.5592    0.0000 </r>
       <r>   12.5977    0.0000 </r>
       <r>   15.9983    0.0000 </r>
       <r>   16.0224    0.0000 </r>
       <r>   16.5233    0.0000 </r>
       <r>   16.5540    0.0000 </r>
       <r>   17.6406    0.0000 </r>
       <r>   17.7431    0.0000 </r>
       <r>   18.3219    0.0000 </r>
       <r>   18.3405    0.0000 </r>
       <r>   18.7316    0.0000 </r>
       <r>   18.7467    0.0000 </r>
       <r>   19.2550    0.0000 </r>
       <r>   19.3668    0.0000 </r>
       <r>   20.6291    0.0000 </r>
       <r>   20.8570    0.0000 </r>
       <r>   22.1673    0.0000 </r>
       <r>   22.2269    0.0000 </r>
       <r>   22.4012    0.0000 </r>
       <r>   22.4566    0.0000 </r>
       <r>   23.0753    0.0000 </r>
       <r>   23.1095    0.0000 </r>
       <r>   23.2879    0.0000 </r>
       <r>   23.3194    0.0000 </r>
       <r>   24.1147    0.0000 </r>
       <r>   24.2314    0.0000 </r>
       <r>   25.2131    0.0000 </r>
       <r>   25.2330    0.0000 </r>
       <r>   25.7729    0.0000 </r>
       <r>   25.8235    0.0000 </r>
       <r>   26.6295    0.0000 </r>
       <r>   26.6772    0.0000 </r>
       <r>   27.7548    0.0000 </r>
       <r>   27.7548    0.0000 </r>
       <r>   27.8799    0.0000 </r>
       <r>   27.8880    0.0000 </r>
       <r>   28.5118    0.0000 </r>
       <r>   28.5209    0.0000 </r>
      </set>
      <set comment="kpoint 15">
       <r>   -6.7432    1.0000 </r>
       <r>   -6.7318    1.0000 </r>
       <r>   -1.9941    1.0000 </r>
       <r>   -1.9778    1.0000 </r>
       <r>    0.9016    1.0000 </r>
       <r>    0.9214    1.0000 </r>
       <r>    2.1450    1.0000 </r>
       <r>    2.1526    1.0000 </r>
       <r>    5.5813    0.0000 </r>
       <r>    5.6119    0.0000 </r>
       <r>    7.8986    0.0000 </r>
       <r>    7.9304    0.0000 </r>
       <r>    8.8638    0.0000 </r>
       <r>    8.8747    0.0000 </r>
       <r>    9.4050    0.0000 </r>
       <r>    9.4727    0.0000 </r>
       <r>   11.9198    0.0000 </r>
       <r>   11.9449    0.0000 </r>
       <r>   12.7481    0.0000 </r>
       <r>   12.8608    0.0000 </r>
       <r>   13.9079    0.0000 </r>
       <r>   14.0055    0.0000 </r>
       <r>   15.2520    0.0000 </r>
       <r>   15.3605    0.0000 </r>
       <r>   17.1444    0.0000 </r>
       <r>   17.1758    0.0000 </r>
       <r>   18.2434    0.0000 </r>
       <r>   18.2686    0.0000 </r>
       <r>   18.4486    0.0000 </r>
       <r>   18.5141    0.0000 </r>
       <r>   19.7850    0.0000 </r>
       <r>   19.8075    0.0000 </r>
       <r>   21.3005    0.0000 </r>
       <r>   21.3538    0.0000 </r>
       <r>   22.5447    0.0000 </r>
       <r>   22.5752    0.0000 </r>
       <r>   22.7739    0.0000 </r>
       <r>   22.9470    0.0000 </r>
       <r>   23.8340    0.0000 </r>
       <r>   23.9569    0.0000 </r>
       <r>   24.2002    0.0000 </r>
       <r>   24.2381    0.0000 </r>
       <r>   24.4935    0.0000 </r>
       <r>   24.5206    0.0000 </r>
       <r>   26.1918    0.0000 </r>
       <r>   26.2627    0.0000 </r>
       <r>   26.4839    0.0000 </r>
       <r>   26.5577    0.0000 </r>
       <r>   26.9899    0.0000 </r>
       <r>   27.0059    0.0000 </r>
       <r>   28.1529    0.0000 </r>
       <r>   28.1664    0.0000 </r>
       <r>   28.6572    0.0000 </r>
       <r>   28.7043    0.0000 </r>
       <r>   30.4235    0.0000 </r>
       <r>   30.7124    0.0000 </r>
      </set>
      <set comment="kpoint 16">
       <r>   -6.0168    1.0000 </r>
       <r>   -6.0168    1.0000 </r>
       <r>   -2.7764    1.0000 </r>
       <r>   -2.7764    1.0000 </r>
       <r>    1.0162    1.0000 </r>
       <r>    1.0162    1.0000 </r>
       <r>    1.0302    1.0000 </r>
       <r>    1.0302    1.0000 </r>
       <r>    5.1281    0.0000 </r>
       <r>    5.1281    0.0000 </r>
       <r>    5.2299    0.0000 </r>
       <r>    5.2299    0.0000 </r>
       <r>   12.0071    0.0000 </r>
       <r>   12.0071    0.0000 </r>
       <r>   12.5279    0.0000 </r>
       <r>   12.5279    0.0000 </r>
       <r>   12.6964    0.0000 </r>
       <r>   12.6964    0.0000 </r>
       <r>   14.9602    0.0000 </r>
       <r>   14.9602    0.0000 </r>
       <r>   15.4527    0.0000 </r>
       <r>   15.4527    0.0000 </r>
       <r>   15.5371    0.0000 </r>
       <r>   15.5371    0.0000 </r>
       <r>   15.8509    0.0000 </r>
       <r>   15.8509    0.0000 </r>
       <r>   17.0872    0.0000 </r>
       <r>   17.0872    0.0000 </r>
       <r>   20.0657    0.0000 </r>
       <r>   20.0657    0.0000 </r>
       <r>   20.2477    0.0000 </r>
       <r>   20.2477    0.0000 </r>
       <r>   20.3438    0.0000 </r>
       <r>   20.3438    0.0000 </r>
       <r>   20.6300    0.0000 </r>
       <r>   20.6300    0.0000 </r>
       <r>   20.9187    0.0000 </r>
       <r>   20.9187    0.0000 </r>
       <r>   20.9901    0.0000 </r>
       <r>   20.9901    0.0000 </r>
       <r>   21.7440    0.0000 </r>
       <r>   21.7440    0.0000 </r>
       <r>   22.5701    0.0000 </r>
       <r>   22.5701    0.0000 </r>
       <r>   26.6381    0.0000 </r>
       <r>   26.6381    0.0000 </r>
       <r>   26.6751    0.0000 </r>
       <r>   26.6751    0.0000 </r>
       <r>   27.5611    0.0000 </r>
       <r>   27.5612    0.0000 </r>
       <r>   27.6454    0.0000 </r>
       <r>   27.6455    0.0000 </r>
       <r>   31.7479    0.0000 </r>
       <r>   31.7537    0.0000 </r>
       <r>   31.8939    0.0000 </r>
       <r>   31.9697    0.0000 </r>
      </set>
      <set comment="kpoint 17">
       <r>   -6.2432    1.0000 </r>
       <r>   -6.2276    1.0000 </r>
       <r>   -2.4378    1.0000 </r>
       <r>   -2.4187    1.0000 </r>
       <r>    0.5697    1.0000 </r>
       <r>    0.5987    1.0000 </r>
       <r>    1.2630    1.0000 </r>
       <r>    1.2661    1.0000 </r>
       <r>    5.4190    0.0000 </r>
       <r>    5.4307    0.0000 </r>
       <r>    6.4725    0.0000 </r>
       <r>    6.4744    0.0000 </r>
       <r>   10.2447    0.0000 </r>
       <r>   10.3270    0.0000 </r>
       <r>   11.1038    0.0000 </r>
       <r>   11.1220    0.0000 </r>
       <r>   12.2935    0.0000 </r>
       <r>   12.4171    0.0000 </r>
       <r>   14.6237    0.0000 </r>
       <r>   14.6621    0.0000 </r>
       <r>   15.3906    0.0000 </r>
       <r>   15.5224    0.0000 </r>
       <r>   15.8298    0.0000 </r>
       <r>   15.8369    0.0000 </r>
       <r>   16.4457    0.0000 </r>
       <r>   16.4884    0.0000 </r>
       <r>   18.1535    0.0000 </r>
       <r>   18.1901    0.0000 </r>
       <r>   18.6674    0.0000 </r>
       <r>   18.7397    0.0000 </r>
       <r>   19.5645    0.0000 </r>
       <r>   19.5827    0.0000 </r>
       <r>   19.9175    0.0000 </r>
       <r>   19.9693    0.0000 </r>
       <r>   20.7819    0.0000 </r>
       <r>   20.8045    0.0000 </r>
       <r>   21.4113    0.0000 </r>
       <r>   21.5038    0.0000 </r>
       <r>   23.1285    0.0000 </r>
       <r>   23.1604    0.0000 </r>
       <r>   23.2855    0.0000 </r>
       <r>   23.3930    0.0000 </r>
       <r>   23.9970    0.0000 </r>
       <r>   24.0770    0.0000 </r>
       <r>   25.7091    0.0000 </r>
       <r>   25.7813    0.0000 </r>
       <r>   26.1536    0.0000 </r>
       <r>   26.1557    0.0000 </r>
       <r>   27.4398    0.0000 </r>
       <r>   27.4669    0.0000 </r>
       <r>   27.9688    0.0000 </r>
       <r>   28.0189    0.0000 </r>
       <r>   29.4597    0.0000 </r>
       <r>   29.4994    0.0000 </r>
       <r>   29.8476    0.0000 </r>
       <r>   30.0301    0.0000 </r>
      </set>
      <set comment="kpoint 18">
       <r>   -6.5580    1.0000 </r>
       <r>   -6.5451    1.0000 </r>
       <r>   -2.3379    1.0000 </r>
       <r>   -2.3210    1.0000 </r>
       <r>    1.0398    1.0000 </r>
       <r>    1.0658    1.0000 </r>
       <r>    1.8317    1.0000 </r>
       <r>    1.8357    1.0000 </r>
       <r>    5.5007    0.0000 </r>
       <r>    5.5187    0.0000 </r>
       <r>    7.6150    0.0000 </r>
       <r>    7.6569    0.0000 </r>
       <r>    9.1551    0.0000 </r>
       <r>    9.1691    0.0000 </r>
       <r>    9.7056    0.0000 </r>
       <r>    9.7907    0.0000 </r>
       <r>   12.1084    0.0000 </r>
       <r>   12.2255    0.0000 </r>
       <r>   13.5926    0.0000 </r>
       <r>   13.6352    0.0000 </r>
       <r>   14.2392    0.0000 </r>
       <r>   14.2722    0.0000 </r>
       <r>   15.2526    0.0000 </r>
       <r>   15.3217    0.0000 </r>
       <r>   15.5535    0.0000 </r>
       <r>   15.5841    0.0000 </r>
       <r>   18.4146    0.0000 </r>
       <r>   18.5560    0.0000 </r>
       <r>   19.8562    0.0000 </r>
       <r>   19.9129    0.0000 </r>
       <r>   20.0330    0.0000 </r>
       <r>   20.0767    0.0000 </r>
       <r>   21.0470    0.0000 </r>
       <r>   21.0513    0.0000 </r>
       <r>   22.0199    0.0000 </r>
       <r>   22.0463    0.0000 </r>
       <r>   22.5084    0.0000 </r>
       <r>   22.5683    0.0000 </r>
       <r>   23.4129    0.0000 </r>
       <r>   23.4154    0.0000 </r>
       <r>   24.2269    0.0000 </r>
       <r>   24.3656    0.0000 </r>
       <r>   25.2039    0.0000 </r>
       <r>   25.2382    0.0000 </r>
       <r>   25.8525    0.0000 </r>
       <r>   25.8571    0.0000 </r>
       <r>   26.3532    0.0000 </r>
       <r>   26.4184    0.0000 </r>
       <r>   26.9269    0.0000 </r>
       <r>   27.0462    0.0000 </r>
       <r>   28.1613    0.0000 </r>
       <r>   28.1943    0.0000 </r>
       <r>   28.4973    0.0000 </r>
       <r>   28.5431    0.0000 </r>
       <r>   29.2879    0.0000 </r>
       <r>   29.4624    0.0000 </r>
      </set>
      <set comment="kpoint 19">
       <r>   -7.2130    1.0000 </r>
       <r>   -7.2088    1.0000 </r>
       <r>   -0.9739    1.0000 </r>
       <r>   -0.9736    1.0000 </r>
       <r>    1.6458    1.0000 </r>
       <r>    1.6774    1.0000 </r>
       <r>    1.9072    1.0000 </r>
       <r>    1.9087    1.0000 </r>
       <r>    5.6011    0.0000 </r>
       <r>    5.6361    0.0000 </r>
       <r>    6.9659    0.0000 </r>
       <r>    7.0205    0.0000 </r>
       <r>    8.8461    0.0000 </r>
       <r>    8.8840    0.0000 </r>
       <r>    9.4611    0.0000 </r>
       <r>    9.4722    0.0000 </r>
       <r>   11.1949    0.0000 </r>
       <r>   11.2099    0.0000 </r>
       <r>   13.3243    0.0000 </r>
       <r>   13.3572    0.0000 </r>
       <r>   13.3854    0.0000 </r>
       <r>   13.4221    0.0000 </r>
       <r>   15.7228    0.0000 </r>
       <r>   15.7527    0.0000 </r>
       <r>   16.7302    0.0000 </r>
       <r>   16.7752    0.0000 </r>
       <r>   17.7745    0.0000 </r>
       <r>   17.7804    0.0000 </r>
       <r>   17.9797    0.0000 </r>
       <r>   18.0263    0.0000 </r>
       <r>   18.1363    0.0000 </r>
       <r>   18.1385    0.0000 </r>
       <r>   21.4676    0.0000 </r>
       <r>   21.5963    0.0000 </r>
       <r>   22.0064    0.0000 </r>
       <r>   22.0534    0.0000 </r>
       <r>   22.3976    0.0000 </r>
       <r>   22.4046    0.0000 </r>
       <r>   23.1371    0.0000 </r>
       <r>   23.1594    0.0000 </r>
       <r>   25.5971    0.0000 </r>
       <r>   25.6421    0.0000 </r>
       <r>   25.9759    0.0000 </r>
       <r>   25.9870    0.0000 </r>
       <r>   26.6637    0.0000 </r>
       <r>   26.6645    0.0000 </r>
       <r>   28.1118    0.0000 </r>
       <r>   28.1814    0.0000 </r>
       <r>   28.6028    0.0000 </r>
       <r>   28.6143    0.0000 </r>
       <r>   29.4759    0.0000 </r>
       <r>   29.5559    0.0000 </r>
       <r>   29.8568    0.0000 </r>
       <r>   29.9579    0.0000 </r>
       <r>   30.2341    0.0000 </r>
       <r>   30.2774    0.0000 </r>
      </set>
      <set comment="kpoint 20">
       <r>   -6.6159    1.0000 </r>
       <r>   -6.6024    1.0000 </r>
       <r>   -1.9131    1.0000 </r>
       <r>   -1.8953    1.0000 </r>
       <r>    0.6259    1.0000 </r>
       <r>    0.6458    1.0000 </r>
       <r>    1.5245    1.0000 </r>
       <r>    1.5656    1.0000 </r>
       <r>    6.3150    0.0000 </r>
       <r>    6.4103    0.0000 </r>
       <r>    6.9550    0.0000 </r>
       <r>    7.0395    0.0000 </r>
       <r>    8.3760    0.0000 </r>
       <r>    8.5390    0.0000 </r>
       <r>   10.7092    0.0000 </r>
       <r>   10.8488    0.0000 </r>
       <r>   11.4841    0.0000 </r>
       <r>   11.5675    0.0000 </r>
       <r>   13.9194    0.0000 </r>
       <r>   14.0800    0.0000 </r>
       <r>   15.2517    0.0000 </r>
       <r>   15.3642    0.0000 </r>
       <r>   15.4589    0.0000 </r>
       <r>   15.4989    0.0000 </r>
       <r>   16.0515    0.0000 </r>
       <r>   16.1194    0.0000 </r>
       <r>   17.9489    0.0000 </r>
       <r>   18.0514    0.0000 </r>
       <r>   18.6726    0.0000 </r>
       <r>   18.7959    0.0000 </r>
       <r>   19.7374    0.0000 </r>
       <r>   19.7599    0.0000 </r>
       <r>   20.5287    0.0000 </r>
       <r>   20.6093    0.0000 </r>
       <r>   22.0164    0.0000 </r>
       <r>   22.0708    0.0000 </r>
       <r>   22.3737    0.0000 </r>
       <r>   22.4922    0.0000 </r>
       <r>   23.0960    0.0000 </r>
       <r>   23.1875    0.0000 </r>
       <r>   23.4695    0.0000 </r>
       <r>   23.5017    0.0000 </r>
       <r>   25.1645    0.0000 </r>
       <r>   25.2325    0.0000 </r>
       <r>   25.6779    0.0000 </r>
       <r>   25.7167    0.0000 </r>
       <r>   26.7406    0.0000 </r>
       <r>   26.8272    0.0000 </r>
       <r>   27.1630    0.0000 </r>
       <r>   27.1869    0.0000 </r>
       <r>   28.2945    0.0000 </r>
       <r>   28.3256    0.0000 </r>
       <r>   29.3426    0.0000 </r>
       <r>   29.3820    0.0000 </r>
       <r>   29.7591    0.0000 </r>
       <r>   29.9468    0.0000 </r>
      </set>
      <set comment="kpoint 21">
       <r>   -6.2073    1.0000 </r>
       <r>   -6.1829    1.0000 </r>
       <r>   -2.4957    1.0000 </r>
       <r>   -2.4612    1.0000 </r>
       <r>    0.2518    1.0000 </r>
       <r>    0.2760    1.0000 </r>
       <r>    1.2147    1.0000 </r>
       <r>    1.2618    1.0000 </r>
       <r>    6.4758    0.0000 </r>
       <r>    6.5402    0.0000 </r>
       <r>    7.4534    0.0000 </r>
       <r>    7.5337    0.0000 </r>
       <r>    8.8476    0.0000 </r>
       <r>    8.9828    0.0000 </r>
       <r>   10.6019    0.0000 </r>
       <r>   10.7256    0.0000 </r>
       <r>   11.2536    0.0000 </r>
       <r>   11.4949    0.0000 </r>
       <r>   13.9069    0.0000 </r>
       <r>   13.9198    0.0000 </r>
       <r>   15.2395    0.0000 </r>
       <r>   15.2872    0.0000 </r>
       <r>   15.4886    0.0000 </r>
       <r>   15.5578    0.0000 </r>
       <r>   17.8873    0.0000 </r>
       <r>   17.9649    0.0000 </r>
       <r>   18.2240    0.0000 </r>
       <r>   18.3145    0.0000 </r>
       <r>   19.1025    0.0000 </r>
       <r>   19.1407    0.0000 </r>
       <r>   19.9111    0.0000 </r>
       <r>   19.9685    0.0000 </r>
       <r>   20.2288    0.0000 </r>
       <r>   20.3930    0.0000 </r>
       <r>   21.8126    0.0000 </r>
       <r>   21.9794    0.0000 </r>
       <r>   22.4713    0.0000 </r>
       <r>   22.5214    0.0000 </r>
       <r>   22.9828    0.0000 </r>
       <r>   23.0174    0.0000 </r>
       <r>   23.3422    0.0000 </r>
       <r>   23.4052    0.0000 </r>
       <r>   24.7305    0.0000 </r>
       <r>   24.7540    0.0000 </r>
       <r>   24.9050    0.0000 </r>
       <r>   24.9627    0.0000 </r>
       <r>   25.5180    0.0000 </r>
       <r>   25.5553    0.0000 </r>
       <r>   26.9400    0.0000 </r>
       <r>   27.0009    0.0000 </r>
       <r>   28.0429    0.0000 </r>
       <r>   28.1124    0.0000 </r>
       <r>   28.7225    0.0000 </r>
       <r>   28.8598    0.0000 </r>
       <r>   28.9958    0.0000 </r>
       <r>   29.2020    0.0000 </r>
      </set>
      <set comment="kpoint 22">
       <r>   -6.0066    1.0000 </r>
       <r>   -5.9802    1.0000 </r>
       <r>   -2.6834    1.0000 </r>
       <r>   -2.6491    1.0000 </r>
       <r>    0.4730    1.0000 </r>
       <r>    0.5483    1.0000 </r>
       <r>    0.6110    1.0000 </r>
       <r>    0.7255    1.0000 </r>
       <r>    6.4602    0.0000 </r>
       <r>    6.4825    0.0000 </r>
       <r>    6.5213    0.0000 </r>
       <r>    6.5622    0.0000 </r>
       <r>    9.8378    0.0000 </r>
       <r>   10.0135    0.0000 </r>
       <r>   10.3537    0.0000 </r>
       <r>   10.3587    0.0000 </r>
       <r>   12.8162    0.0000 </r>
       <r>   12.9194    0.0000 </r>
       <r>   14.7678    0.0000 </r>
       <r>   14.8061    0.0000 </r>
       <r>   15.1492    0.0000 </r>
       <r>   15.3172    0.0000 </r>
       <r>   15.5103    0.0000 </r>
       <r>   15.5918    0.0000 </r>
       <r>   18.0996    0.0000 </r>
       <r>   18.1753    0.0000 </r>
       <r>   18.8266    0.0000 </r>
       <r>   18.8925    0.0000 </r>
       <r>   18.9374    0.0000 </r>
       <r>   18.9932    0.0000 </r>
       <r>   19.1041    0.0000 </r>
       <r>   19.1145    0.0000 </r>
       <r>   19.5050    0.0000 </r>
       <r>   19.6323    0.0000 </r>
       <r>   20.1960    0.0000 </r>
       <r>   20.2535    0.0000 </r>
       <r>   22.6015    0.0000 </r>
       <r>   22.6664    0.0000 </r>
       <r>   22.9182    0.0000 </r>
       <r>   23.0204    0.0000 </r>
       <r>   23.7836    0.0000 </r>
       <r>   23.8141    0.0000 </r>
       <r>   23.8976    0.0000 </r>
       <r>   23.9176    0.0000 </r>
       <r>   24.5996    0.0000 </r>
       <r>   24.7455    0.0000 </r>
       <r>   24.7598    0.0000 </r>
       <r>   24.8124    0.0000 </r>
       <r>   26.8255    0.0000 </r>
       <r>   26.8911    0.0000 </r>
       <r>   28.1723    0.0000 </r>
       <r>   28.1930    0.0000 </r>
       <r>   28.9374    0.0000 </r>
       <r>   29.0009    0.0000 </r>
       <r>   29.6597    0.0000 </r>
       <r>   29.8926    0.0000 </r>
      </set>
     </set>
    </set>
   </array>
  </eigenvalues>
  <separator name="orbital magnetization" >
   <v name="MAGDIPOLOUT">      0.00000000      0.00000000      0.00000000</v>
  </separator>
  <dos>
   <i name="efermi">      3.06947845 </i>
   <total>
    <array>
     <dimension dim="1">gridpoints</dimension>
     <dimension dim="2">spin</dimension>
     <field>energy</field>
     <field>total</field>
     <field>integrated</field>
     <set>
      <set comment="spin 1">
       <r>   -10.2374     0.0000     0.0000 </r>
       <r>   -10.0835     0.0000     0.0000 </r>
       <r>    -9.9296     0.0000     0.0000 </r>
       <r>    -9.7758     0.0000     0.0000 </r>
       <r>    -9.6219     0.0000     0.0000 </r>
       <r>    -9.4680     0.0000     0.0000 </r>
       <r>    -9.3142     0.0000     0.0000 </r>
       <r>    -9.1603     0.0000     0.0000 </r>
       <r>    -9.0064     0.0000     0.0000 </r>
       <r>    -8.8526     0.0000     0.0000 </r>
       <r>    -8.6987     0.0000     0.0000 </r>
       <r>    -8.5448    -0.0000    -0.0000 </r>
       <r>    -8.3910    -0.0000    -0.0000 </r>
       <r>    -8.2371    -0.0005    -0.0001 </r>
       <r>    -8.0833     0.0627     0.0096 </r>
       <r>    -7.9294    -0.0189     0.0067 </r>
       <r>    -7.7755     0.7041     0.1150 </r>
       <r>    -7.6217     0.1553     0.1389 </r>
       <r>    -7.4678     0.1652     0.1643 </r>
       <r>    -7.3139     0.5475     0.2486 </r>
       <r>    -7.1601     1.8610     0.5349 </r>
       <r>    -7.0062     0.0741     0.5463 </r>
       <r>    -6.8523    -0.0030     0.5458 </r>
       <r>    -6.6985     1.7855     0.8206 </r>
       <r>    -6.5446     2.6397     1.2267 </r>
       <r>    -6.3907     0.5123     1.3055 </r>
       <r>    -6.2369     0.7478     1.4206 </r>
       <r>    -6.0830     2.8550     1.8599 </r>
       <r>    -5.9292     0.9326     2.0034 </r>
       <r>    -5.7753    -0.0220     2.0000 </r>
       <r>    -5.6214    -0.0000     2.0000 </r>
       <r>    -5.4676     0.0000     2.0000 </r>
       <r>    -5.3137     0.0000     2.0000 </r>
       <r>    -5.1598     0.0000     2.0000 </r>
       <r>    -5.0060     0.0000     2.0000 </r>
       <r>    -4.8521     0.0000     2.0000 </r>
       <r>    -4.6982     0.0000     2.0000 </r>
       <r>    -4.5444     0.0000     2.0000 </r>
       <r>    -4.3905     0.0000     2.0000 </r>
       <r>    -4.2366     0.0000     2.0000 </r>
       <r>    -4.0828     0.0000     2.0000 </r>
       <r>    -3.9289     0.0000     2.0000 </r>
       <r>    -3.7750     0.0000     2.0000 </r>
       <r>    -3.6212     0.0000     2.0000 </r>
       <r>    -3.4673     0.0000     2.0000 </r>
       <r>    -3.3135    -0.0000     2.0000 </r>
       <r>    -3.1596    -0.0000     2.0000 </r>
       <r>    -3.0057    -0.0000     2.0000 </r>
       <r>    -2.8519    -0.0049     1.9992 </r>
       <r>    -2.6980     0.2770     2.0419 </r>
       <r>    -2.5441     0.5819     2.1314 </r>
       <r>    -2.3903     3.8427     2.7227 </r>
       <r>    -2.2364     1.5205     2.9566 </r>
       <r>    -2.0825    -0.0344     2.9513 </r>
       <r>    -1.9287     1.7196     3.2159 </r>
       <r>    -1.7748     1.1860     3.3984 </r>
       <r>    -1.6209    -0.0117     3.3966 </r>
       <r>    -1.4671     0.4916     3.4722 </r>
       <r>    -1.3132     0.3613     3.5278 </r>
       <r>    -1.1594    -0.0002     3.5278 </r>
       <r>    -1.0055     0.0937     3.5422 </r>
       <r>    -0.8516     1.3528     3.7503 </r>
       <r>    -0.6978    -0.0022     3.7500 </r>
       <r>    -0.5439    -0.0092     3.7486 </r>
       <r>    -0.3900     0.7570     3.8650 </r>
       <r>    -0.2362    -0.0256     3.8611 </r>
       <r>    -0.0823    -0.0032     3.8606 </r>
       <r>     0.0716     0.7133     3.9704 </r>
       <r>     0.2254     0.0761     3.9821 </r>
       <r>     0.3793     1.3813     4.1946 </r>
       <r>     0.5332     0.4416     4.2626 </r>
       <r>     0.6870     3.8124     4.8492 </r>
       <r>     0.8409     0.8855     4.9854 </r>
       <r>     0.9947     1.5155     5.2186 </r>
       <r>     1.1486     1.7566     5.4889 </r>
       <r>     1.3025     2.8620     5.9292 </r>
       <r>     1.4563     0.7285     6.0413 </r>
       <r>     1.6102     2.8079     6.4733 </r>
       <r>     1.7641     1.5248     6.7080 </r>
       <r>     1.9179     2.4648     7.0872 </r>
       <r>     2.0718     0.5330     7.1692 </r>
       <r>     2.2257     1.8593     7.4553 </r>
       <r>     2.3795     1.1379     7.6304 </r>
       <r>     2.5334     0.5145     7.7095 </r>
       <r>     2.6873     1.2572     7.9030 </r>
       <r>     2.8411     0.4946     7.9791 </r>
       <r>     2.9950     0.0229     7.9826 </r>
       <r>     3.1488     0.1130     8.0000 </r>
       <r>     3.3027     0.0616     8.0095 </r>
       <r>     3.4566    -0.0013     8.0093 </r>
       <r>     3.6104    -0.0000     8.0093 </r>
       <r>     3.7643     0.0000     8.0093 </r>
       <r>     3.9182    -0.0000     8.0093 </r>
       <r>     4.0720    -0.0000     8.0093 </r>
       <r>     4.2259    -0.0001     8.0092 </r>
       <r>     4.3798     0.1854     8.0378 </r>
       <r>     4.5336     0.3049     8.0847 </r>
       <r>     4.6875     0.7166     8.1949 </r>
       <r>     4.8414    -0.0032     8.1944 </r>
       <r>     4.9952    -0.0001     8.1944 </r>
       <r>     5.1491     0.1446     8.2167 </r>
       <r>     5.3029     0.5308     8.2983 </r>
       <r>     5.4568     1.9280     8.5950 </r>
       <r>     5.6107     3.6708     9.1598 </r>
       <r>     5.7645     2.0198     9.4706 </r>
       <r>     5.9184     0.3830     9.5295 </r>
       <r>     6.0723    -0.0112     9.5278 </r>
       <r>     6.2261    -0.0111     9.5261 </r>
       <r>     6.3800     0.7786     9.6459 </r>
       <r>     6.5339     4.2369    10.2978 </r>
       <r>     6.6877     1.0188    10.4545 </r>
       <r>     6.8416     0.1118    10.4717 </r>
       <r>     6.9955     1.4692    10.6978 </r>
       <r>     7.1493     1.4259    10.9172 </r>
       <r>     7.3032    -0.0036    10.9167 </r>
       <r>     7.4570     0.3863    10.9761 </r>
       <r>     7.6109     1.4729    11.2027 </r>
       <r>     7.7648     1.8509    11.4875 </r>
       <r>     7.9186     1.2398    11.6783 </r>
       <r>     8.0725     1.2303    11.8675 </r>
       <r>     8.2264     0.8195    11.9936 </r>
       <r>     8.3802     1.2056    12.1791 </r>
       <r>     8.5341     1.9960    12.4862 </r>
       <r>     8.6880     1.2463    12.6780 </r>
       <r>     8.8418     1.4197    12.8964 </r>
       <r>     8.9957     3.3474    13.4115 </r>
       <r>     9.1496     1.0036    13.5659 </r>
       <r>     9.3034     1.5084    13.7980 </r>
       <r>     9.4573     1.4164    14.0159 </r>
       <r>     9.6111     1.4535    14.2396 </r>
       <r>     9.7650     0.8328    14.3677 </r>
       <r>     9.9189     1.1916    14.5511 </r>
       <r>    10.0727     0.6847    14.6564 </r>
       <r>    10.2266     1.0723    14.8214 </r>
       <r>    10.3805     2.4631    15.2004 </r>
       <r>    10.5343     0.3985    15.2617 </r>
       <r>    10.6882     0.9946    15.4147 </r>
       <r>    10.8421     1.6341    15.6662 </r>
       <r>    10.9959     1.5404    15.9032 </r>
       <r>    11.1498     2.3752    16.2686 </r>
       <r>    11.3037     2.3144    16.6247 </r>
       <r>    11.4575     0.5435    16.7084 </r>
       <r>    11.6114     2.0835    17.0290 </r>
       <r>    11.7653    -0.0205    17.0258 </r>
       <r>    11.9191     1.8016    17.3030 </r>
       <r>    12.0730     1.4831    17.5312 </r>
       <r>    12.2268     1.1131    17.7025 </r>
       <r>    12.3807     1.6816    17.9612 </r>
       <r>    12.5346     1.9749    18.2651 </r>
       <r>    12.6884     0.7902    18.3867 </r>
       <r>    12.8423     1.4365    18.6077 </r>
       <r>    12.9962     1.3560    18.8163 </r>
       <r>    13.1500     0.0775    18.8283 </r>
       <r>    13.3039     0.3680    18.8849 </r>
       <r>    13.4578     3.6520    19.4468 </r>
       <r>    13.6116     1.0506    19.6084 </r>
       <r>    13.7655     0.9206    19.7501 </r>
       <r>    13.9194     1.7077    20.0128 </r>
       <r>    14.0732     2.6228    20.4164 </r>
       <r>    14.2271     0.8154    20.5418 </r>
       <r>    14.3809     1.4691    20.7679 </r>
       <r>    14.5348     1.1504    20.9449 </r>
       <r>    14.6887     1.6760    21.2028 </r>
       <r>    14.8425     0.7869    21.3239 </r>
       <r>    14.9964     0.1761    21.3510 </r>
       <r>    15.1503     0.3155    21.3995 </r>
       <r>    15.3041     4.6306    22.1120 </r>
       <r>    15.4580     3.8159    22.6991 </r>
       <r>    15.6119     5.5959    23.5601 </r>
       <r>    15.7657     2.2283    23.9030 </r>
       <r>    15.9196     2.2673    24.2518 </r>
       <r>    16.0735     1.8554    24.5373 </r>
       <r>    16.2273     1.0746    24.7027 </r>
[...]
       <r>    22.3819     0.0000     0.0000 </r>
       <r>    22.5358     0.0000     0.0000 </r>
       <r>    22.6896     0.0000     0.0000 </r>
       <r>    22.8435     0.0000     0.0000 </r>
       <r>    22.9973     0.0000     0.0000 </r>
       <r>    23.1512     0.0000     0.0000 </r>
       <r>    23.3051     0.0000     0.0000 </r>
       <r>    23.4589     0.0000     0.0000 </r>
       <r>    23.6128     0.0000     0.0000 </r>
       <r>    23.7667     0.0000     0.0000 </r>
       <r>    23.9205     0.0000     0.0000 </r>
       <r>    24.0744     0.0000     0.0000 </r>
       <r>    24.2283     0.0000     0.0000 </r>
       <r>    24.3821     0.0000     0.0000 </r>
       <r>    24.5360     0.0000     0.0000 </r>
       <r>    24.6899     0.0000     0.0000 </r>
       <r>    24.8437     0.0000     0.0000 </r>
       <r>    24.9976     0.0000     0.0000 </r>
       <r>    25.1515     0.0000     0.0000 </r>
       <r>    25.3053     0.0000     0.0000 </r>
       <r>    25.4592     0.0000     0.0000 </r>
       <r>    25.6130     0.0000     0.0000 </r>
       <r>    25.7669     0.0000     0.0000 </r>
       <r>    25.9208     0.0000     0.0000 </r>
       <r>    26.0746     0.0000     0.0000 </r>
       <r>    26.2285     0.0000     0.0000 </r>
       <r>    26.3824     0.0000     0.0000 </r>
       <r>    26.5362     0.0000     0.0000 </r>
       <r>    26.6901     0.0000     0.0000 </r>
       <r>    26.8440     0.0000     0.0000 </r>
       <r>    26.9978     0.0000     0.0000 </r>
       <r>    27.1517     0.0000     0.0000 </r>
       <r>    27.3056     0.0000     0.0000 </r>
       <r>    27.4594     0.0000     0.0000 </r>
       <r>    27.6133     0.0000     0.0000 </r>
       <r>    27.7671     0.0000     0.0000 </r>
       <r>    27.9210     0.0000     0.0000 </r>
       <r>    28.0749     0.0000     0.0000 </r>
       <r>    28.2287     0.0000     0.0000 </r>
       <r>    28.3826     0.0000     0.0000 </r>
       <r>    28.5365     0.0000     0.0000 </r>
       <r>    28.6903     0.0000     0.0000 </r>
       <r>    28.8442     0.0000     0.0000 </r>
       <r>    28.9981     0.0000     0.0000 </r>
       <r>    29.1519     0.0000     0.0000 </r>
       <r>    29.3058     0.0000     0.0000 </r>
       <r>    29.4597     0.0000     0.0000 </r>
       <r>    29.6135     0.0000     0.0000 </r>
       <r>    29.7674     0.0000     0.0000 </r>
       <r>    29.9212     0.0000     0.0000 </r>
       <r>    30.0751     0.0000     0.0000 </r>
       <r>    30.2290     0.0000     0.0000 </r>
       <r>    30.3828     0.0000     0.0000 </r>
       <r>    30.5367     0.0000     0.0000 </r>
       <r>    30.6906     0.0000     0.0000 </r>
       <r>    30.8444     0.0000     0.0000 </r>
       <r>    30.9983     0.0000     0.0000 </r>
       <r>    31.1522     0.0000     0.0000 </r>
       <r>    31.3060     0.0000     0.0000 </r>
       <r>    31.4599     0.0000     0.0000 </r>
       <r>    31.6138     0.0000     0.0000 </r>
       <r>    31.7676     0.0000     0.0000 </r>
       <r>    31.9215     0.0000     0.0000 </r>
       <r>    32.0753     0.0000     0.0000 </r>
       <r>    32.2292     0.0000     0.0000 </r>
       <r>    32.3831     0.0000     0.0000 </r>
       <r>    32.5369     0.0000     0.0000 </r>
       <r>    32.6908     0.0000     0.0000 </r>
       <r>    32.8447     0.0000     0.0000 </r>
       <r>    32.9985     0.0000     0.0000 </r>
       <r>    33.1524     0.0000     0.0000 </r>
       <r>    33.3063     0.0000     0.0000 </r>
       <r>    33.4601     0.0000     0.0000 </r>
       <r>    33.6140     0.0000     0.0000 </r>
       <r>    33.7679     0.0000     0.0000 </r>
       <r>    33.9217     0.0000     0.0000 </r>
       <r>    34.0756     0.0000     0.0000 </r>
       <r>    34.2294     0.0000     0.0000 </r>
       <r>    34.3833     0.0000     0.0000 </r>
       <r>    34.5372     0.0000     0.0000 </r>
       <r>    34.6910     0.0000     0.0000 </r>
       <r>    34.8449     0.0000     0.0000 </r>
       <r>    34.9988     0.0000     0.0000 </r>
       <r>    35.1526     0.0000     0.0000 </r>
       <r>    35.3065     0.0000     0.0000 </r>
       <r>    35.4604     0.0000     0.0000 </r>
       <r>    35.6142     0.0000     0.0000 </r>
       <r>    35.7681     0.0000     0.0000 </r>
       <r>    35.9220     0.0000     0.0000 </r>
      </set>
      <set comment="spin 4">
       <r>   -10.2374     0.0000     0.0000 </r>
       <r>   -10.0835     0.0000     0.0000 </r>
       <r>    -9.9296     0.0000     0.0000 </r>
       <r>    -9.7758     0.0000     0.0000 </r>
       <r>    -9.6219     0.0000     0.0000 </r>
       <r>    -9.4680     0.0000     0.0000 </r>
       <r>    -9.3142     0.0000     0.0000 </r>
       <r>    -9.1603     0.0000     0.0000 </r>
       <r>    -9.0064     0.0000     0.0000 </r>
       <r>    -8.8526     0.0000     0.0000 </r>
       <r>    -8.6987     0.0000     0.0000 </r>
       <r>    -8.5448     0.0000     0.0000 </r>
       <r>    -8.3910     0.0000     0.0000 </r>
       <r>    -8.2371     0.0000     0.0000 </r>
       <r>    -8.0833     0.0000     0.0000 </r>
       <r>    -7.9294     0.0000     0.0000 </r>
       <r>    -7.7755     0.0000     0.0000 </r>
       <r>    -7.6217     0.0000     0.0000 </r>
       <r>    -7.4678     0.0000     0.0000 </r>
       <r>    -7.3139     0.0000     0.0000 </r>
       <r>    -7.1601     0.0000     0.0000 </r>
       <r>    -7.0062     0.0000     0.0000 </r>
       <r>    -6.8523     0.0000     0.0000 </r>
       <r>    -6.6985     0.0000     0.0000 </r>
       <r>    -6.5446     0.0000     0.0000 </r>
       <r>    -6.3907     0.0000     0.0000 </r>
       <r>    -6.2369     0.0000     0.0000 </r>
       <r>    -6.0830     0.0000     0.0000 </r>
       <r>    -5.9292     0.0000     0.0000 </r>
       <r>    -5.7753     0.0000     0.0000 </r>
       <r>    -5.6214     0.0000     0.0000 </r>
       <r>    -5.4676     0.0000     0.0000 </r>
       <r>    -5.3137     0.0000     0.0000 </r>
       <r>    -5.1598     0.0000     0.0000 </r>
       <r>    -5.0060     0.0000     0.0000 </r>
       <r>    -4.8521     0.0000     0.0000 </r>
       <r>    -4.6982     0.0000     0.0000 </r>
       <r>    -4.5444     0.0000     0.0000 </r>
       <r>    -4.3905     0.0000     0.0000 </r>
       <r>    -4.2366     0.0000     0.0000 </r>
       <r>    -4.0828     0.0000     0.0000 </r>
       <r>    -3.9289     0.0000     0.0000 </r>
       <r>    -3.7750     0.0000     0.0000 </r>
       <r>    -3.6212     0.0000     0.0000 </r>
       <r>    -3.4673     0.0000     0.0000 </r>
       <r>    -3.3135     0.0000     0.0000 </r>
       <r>    -3.1596     0.0000     0.0000 </r>
       <r>    -3.0057     0.0000     0.0000 </r>
       <r>    -2.8519     0.0000     0.0000 </r>
       <r>    -2.6980     0.0000     0.0000 </r>
       <r>    -2.5441     0.0000     0.0000 </r>
       <r>    -2.3903     0.0000     0.0000 </r>
       <r>    -2.2364     0.0000     0.0000 </r>
       <r>    -2.0825     0.0000     0.0000 </r>
       <r>    -1.9287     0.0000     0.0000 </r>
       <r>    -1.7748     0.0000     0.0000 </r>
       <r>    -1.6209     0.0000     0.0000 </r>
       <r>    -1.4671     0.0000     0.0000 </r>
       <r>    -1.3132     0.0000     0.0000 </r>
       <r>    -1.1594     0.0000     0.0000 </r>
       <r>    -1.0055     0.0000     0.0000 </r>
       <r>    -0.8516     0.0000     0.0000 </r>
       <r>    -0.6978     0.0000     0.0000 </r>
       <r>    -0.5439     0.0000     0.0000 </r>
       <r>    -0.3900     0.0000     0.0000 </r>
       <r>    -0.2362     0.0000     0.0000 </r>
       <r>    -0.0823     0.0000     0.0000 </r>
       <r>     0.0716     0.0000     0.0000 </r>
       <r>     0.2254     0.0000     0.0000 </r>
       <r>     0.3793     0.0000     0.0000 </r>
       <r>     0.5332     0.0000     0.0000 </r>
       <r>     0.6870     0.0000     0.0000 </r>
       <r>     0.8409     0.0000     0.0000 </r>
       <r>     0.9947     0.0000     0.0000 </r>
       <r>     1.1486     0.0000     0.0000 </r>
       <r>     1.3025     0.0000     0.0000 </r>
       <r>     1.4563     0.0000     0.0000 </r>
       <r>     1.6102     0.0000     0.0000 </r>
       <r>     1.7641     0.0000     0.0000 </r>
       <r>     1.9179     0.0000     0.0000 </r>
       <r>     2.0718     0.0000     0.0000 </r>
       <r>     2.2257     0.0000     0.0000 </r>
       <r>     2.3795     0.0000     0.0000 </r>
       <r>     2.5334     0.0000     0.0000 </r>
       <r>     2.6873     0.0000     0.0000 </r>
       <r>     2.8411     0.0000     0.0000 </r>
       <r>     2.9950     0.0000     0.0000 </r>
       <r>     3.1488     0.0000     0.0000 </r>
       <r>     3.3027     0.0000     0.0000 </r>
       <r>     3.4566     0.0000     0.0000 </r>
       <r>     3.6104     0.0000     0.0000 </r>
       <r>     3.7643     0.0000     0.0000 </r>
       <r>     3.9182     0.0000     0.0000 </r>
       <r>     4.0720     0.0000     0.0000 </r>
       <r>     4.2259     0.0000     0.0000 </r>
       <r>     4.3798     0.0000     0.0000 </r>
       <r>     4.5336     0.0000     0.0000 </r>
       <r>     4.6875     0.0000     0.0000 </r>
       <r>     4.8414     0.0000     0.0000 </r>
       <r>     4.9952     0.0000     0.0000 </r>
       <r>     5.1491     0.0000     0.0000 </r>
       <r>     5.3029     0.0000     0.0000 </r>
       <r>     5.4568     0.0000     0.0000 </r>
       <r>     5.6107     0.0000     0.0000 </r>
       <r>     5.7645     0.0000     0.0000 </r>
       <r>     5.9184     0.0000     0.0000 </r>
       <r>     6.0723     0.0000     0.0000 </r>
       <r>     6.2261     0.0000     0.0000 </r>
       <r>     6.3800     0.0000     0.0000 </r>
       <r>     6.5339     0.0000     0.0000 </r>
       <r>     6.6877     0.0000     0.0000 </r>
       <r>     6.8416     0.0000     0.0000 </r>
       <r>     6.9955     0.0000     0.0000 </r>
       <r>     7.1493     0.0000     0.0000 </r>
       <r>     7.3032     0.0000     0.0000 </r>
       <r>     7.4570     0.0000     0.0000 </r>
       <r>     7.6109     0.0000     0.0000 </r>
       <r>     7.7648     0.0000     0.0000 </r>
       <r>     7.9186     0.0000     0.0000 </r>
       <r>     8.0725     0.0000     0.0000 </r>
       <r>     8.2264     0.0000     0.0000 </r>
       <r>     8.3802     0.0000     0.0000 </r>
       <r>     8.5341     0.0000     0.0000 </r>
       <r>     8.6880     0.0000     0.0000 </r>
       <r>     8.8418     0.0000     0.0000 </r>
       <r>     8.9957     0.0000     0.0000 </r>
       <r>     9.1496     0.0000     0.0000 </r>
       <r>     9.3034     0.0000     0.0000 </r>
       <r>     9.4573     0.0000     0.0000 </r>
       <r>     9.6111     0.0000     0.0000 </r>
       <r>     9.7650     0.0000     0.0000 </r>
       <r>     9.9189     0.0000     0.0000 </r>
       <r>    10.0727     0.0000     0.0000 </r>
       <r>    10.2266     0.0000     0.0000 </r>
       <r>    10.3805     0.0000     0.0000 </r>
       <r>    10.5343     0.0000     0.0000 </r>
       <r>    10.6882     0.0000     0.0000 </r>
       <r>    10.8421     0.0000     0.0000 </r>
       <r>    10.9959     0.0000     0.0000 </r>
       <r>    11.1498     0.0000     0.0000 </r>
       <r>    11.3037     0.0000     0.0000 </r>
       <r>    11.4575     0.0000     0.0000 </r>
       <r>    11.6114     0.0000     0.0000 </r>
       <r>    11.7653     0.0000     0.0000 </r>
       <r>    11.9191     0.0000     0.0000 </r>
       <r>    12.0730     0.0000     0.0000 </r>
       <r>    12.2268     0.0000     0.0000 </r>
       <r>    12.3807     0.0000     0.0000 </r>
       <r>    12.5346     0.0000     0.0000 </r>
       <r>    12.6884     0.0000     0.0000 </r>
       <r>    12.8423     0.0000     0.0000 </r>
       <r>    12.9962     0.0000     0.0000 </r>
       <r>    13.1500     0.0000     0.0000 </r>
       <r>    13.3039     0.0000     0.0000 </r>
       <r>    13.4578     0.0000     0.0000 </r>
       <r>    13.6116     0.0000     0.0000 </r>
       <r>    13.7655     0.0000     0.0000 </r>
       <r>    13.9194     0.0000     0.0000 </r>
       <r>    14.0732     0.0000     0.0000 </r>
       <r>    14.2271     0.0000     0.0000 </r>
       <r>    14.3809     0.0000     0.0000 </r>
       <r>    14.5348     0.0000     0.0000 </r>
       <r>    14.6887     0.0000     0.0000 </r>
       <r>    14.8425     0.0000     0.0000 </r>
       <r>    14.9964     0.0000     0.0000 </r>
       <r>    15.1503     0.0000     0.0000 </r>
       <r>    15.3041     0.0000     0.0000 </r>
       <r>    15.4580     0.0000     0.0000 </r>
       <r>    15.6119     0.0000     0.0000 </r>
       <r>    15.7657     0.0000     0.0000 </r>
       <r>    15.9196     0.0000     0.0000 </r>
       <r>    16.0735     0.0000     0.0000 </r>
       <r>    16.2273     0.0000     0.0000 </r>
       <r>    16.3812     0.0000     0.0000 </r>
       <r>    16.5350     0.0000     0.0000 </r>
       <r>    16.6889     0.0000     0.0000 </r>
       <r>    16.8428     0.0000     0.0000 </r>
       <r>    16.9966     0.0000     0.0000 </r>
       <r>    17.1505     0.0000     0.0000 </r>
       <r>    17.3044     0.0000     0.0000 </r>
       <r>    17.4582     0.0000     0.0000 </r>
       <r>    17.6121     0.0000     0.0000 </r>
       <r>    17.7660     0.0000     0.0000 </r>
       <r>    17.9198     0.0000     0.0000 </r>
       <r>    18.0737     0.0000     0.0000 </r>
       <r>    18.2276     0.0000     0.0000 </r>
       <r>    18.3814     0.0000     0.0000 </r>
       <r>    18.5353     0.0000     0.0000 </r>
       <r>    18.6891     0.0000     0.0000 </r>
       <r>    18.8430     0.0000     0.0000 </r>
       <r>    18.9969     0.0000     0.0000 </r>
       <r>    19.1507     0.0000     0.0000 </r>
       <r>    19.3046     0.0000     0.0000 </r>
       <r>    19.4585     0.0000     0.0000 </r>
       <r>    19.6123     0.0000     0.0000 </r>
       <r>    19.7662     0.0000     0.0000 </r>
       <r>    19.9201     0.0000     0.0000 </r>
       <r>    20.0739     0.0000     0.0000 </r>
       <r>    20.2278     0.0000     0.0000 </r>
       <r>    20.3817     0.0000     0.0000 </r>
       <r>    20.5355     0.0000     0.0000 </r>
       <r>    20.6894     0.0000     0.0000 </r>
       <r>    20.8432     0.0000     0.0000 </r>
       <r>    20.9971     0.0000     0.0000 </r>
       <r>    21.1510     0.0000     0.0000 </r>
       <r>    21.3048     0.0000     0.0000 </r>
       <r>    21.4587     0.0000     0.0000 </r>
       <r>    21.6126     0.0000     0.0000 </r>
       <r>    21.7664     0.0000     0.0000 </r>
       <r>    21.9203     0.0000     0.0000 </r>
       <r>    22.0742     0.0000     0.0000 </r>
       <r>    22.2280     0.0000     0.0000 </r>
       <r>    22.3819     0.0000     0.0000 </r>
       <r>    22.5358     0.0000     0.0000 </r>
       <r>    22.6896     0.0000     0.0000 </r>
       <r>    22.8435     0.0000     0.0000 </r>
       <r>    22.9973     0.0000     0.0000 </r>
       <r>    23.1512     0.0000     0.0000 </r>
       <r>    23.3051     0.0000     0.0000 </r>
       <r>    23.4589     0.0000     0.0000 </r>
       <r>    23.6128     0.0000     0.0000 </r>
       <r>    23.7667     0.0000     0.0000 </r>
       <r>    23.9205     0.0000     0.0000 </r>
       <r>    24.0744     0.0000     0.0000 </r>
       <r>    24.2283     0.0000     0.0000 </r>
       <r>    24.3821     0.0000     0.0000 </r>
       <r>    24.5360     0.0000     0.0000 </r>
       <r>    24.6899     0.0000     0.0000 </r>
       <r>    24.8437     0.0000     0.0000 </r>
       <r>    24.9976     0.0000     0.0000 </r>
       <r>    25.1515     0.0000     0.0000 </r>
       <r>    25.3053     0.0000     0.0000 </r>
       <r>    25.4592     0.0000     0.0000 </r>
       <r>    25.6130     0.0000     0.0000 </r>
       <r>    25.7669     0.0000     0.0000 </r>
       <r>    25.9208     0.0000     0.0000 </r>
       <r>    26.0746     0.0000     0.0000 </r>
       <r>    26.2285     0.0000     0.0000 </r>
       <r>    26.3824     0.0000     0.0000 </r>
       <r>    26.5362     0.0000     0.0000 </r>
       <r>    26.6901     0.0000     0.0000 </r>
       <r>    26.8440     0.0000     0.0000 </r>
       <r>    26.9978     0.0000     0.0000 </r>
       <r>    27.1517     0.0000     0.0000 </r>
       <r>    27.3056     0.0000     0.0000 </r>
       <r>    27.4594     0.0000     0.0000 </r>
       <r>    27.6133     0.0000     0.0000 </r>
       <r>    27.7671     0.0000     0.0000 </r>
       <r>    27.9210     0.0000     0.0000 </r>
       <r>    28.0749     0.0000     0.0000 </r>
       <r>    28.2287     0.0000     0.0000 </r>
       <r>    28.3826     0.0000     0.0000 </r>
       <r>    28.5365     0.0000     0.0000 </r>
       <r>    28.6903     0.0000     0.0000 </r>
       <r>    28.8442     0.0000     0.0000 </r>
       <r>    28.9981     0.0000     0.0000 </r>
       <r>    29.1519     0.0000     0.0000 </r>
       <r>    29.3058     0.0000     0.0000 </r>
       <r>    29.4597     0.0000     0.0000 </r>
       <r>    29.6135     0.0000     0.0000 </r>
       <r>    29.7674     0.0000     0.0000 </r>
       <r>    29.9212     0.0000     0.0000 </r>
       <r>    30.0751     0.0000     0.0000 </r>
       <r>    30.2290     0.0000     0.0000 </r>
       <r>    30.3828     0.0000     0.0000 </r>
       <r>    30.5367     0.0000     0.0000 </r>
       <r>    30.6906     0.0000     0.0000 </r>
       <r>    30.8444     0.0000     0.0000 </r>
       <r>    30.9983     0.0000     0.0000 </r>
       <r>    31.1522     0.0000     0.0000 </r>
       <r>    31.3060     0.0000     0.0000 </r>
       <r>    31.4599     0.0000     0.0000 </r>
       <r>    31.6138     0.0000     0.0000 </r>
       <r>    31.7676     0.0000     0.0000 </r>
       <r>    31.9215     0.0000     0.0000 </r>
       <r>    32.0753     0.0000     0.0000 </r>
       <r>    32.2292     0.0000     0.0000 </r>
       <r>    32.3831     0.0000     0.0000 </r>
       <r>    32.5369     0.0000     0.0000 </r>
       <r>    32.6908     0.0000     0.0000 </r>
       <r>    32.8447     0.0000     0.0000 </r>
       <r>    32.9985     0.0000     0.0000 </r>
       <r>    33.1524     0.0000     0.0000 </r>
       <r>    33.3063     0.0000     0.0000 </r>
       <r>    33.4601     0.0000     0.0000 </r>
       <r>    33.6140     0.0000     0.0000 </r>
       <r>    33.7679     0.0000     0.0000 </r>
       <r>    33.9217     0.0000     0.0000 </r>
       <r>    34.0756     0.0000     0.0000 </r>
       <r>    34.2294     0.0000     0.0000 </r>
       <r>    34.3833     0.0000     0.0000 </r>
       <r>    34.5372     0.0000     0.0000 </r>
       <r>    34.6910     0.0000     0.0000 </r>
       <r>    34.8449     0.0000     0.0000 </r>
       <r>    34.9988     0.0000     0.0000 </r>
       <r>    35.1526     0.0000     0.0000 </r>
       <r>    35.3065     0.0000     0.0000 </r>
       <r>    35.4604     0.0000     0.0000 </r>
       <r>    35.6142     0.0000     0.0000 </r>
       <r>    35.7681     0.0000     0.0000 </r>
       <r>    35.9220     0.0000     0.0000 </r>
      </set>
     </set>
    </array>
   </total>
  </dos>
 </calculation>
 <structure name="finalpos" >
  <crystal>
   <varray name="basis" >
    <v>       0.00000000       3.02920000       3.02920000 </v>
    <v>       3.02920000       0.00000000       3.02920000 </v>
    <v>       3.02920000       3.02920000       0.00000000 </v>
   </varray>
   <i name="volume">     55.59219731 </i>
   <varray name="rec_basis" >
    <v>      -0.16506008       0.16506008       0.16506008 </v>
    <v>       0.16506008      -0.16506008       0.16506008 </v>
    <v>       0.16506008       0.16506008      -0.16506008 </v>
   </varray>
  </crystal>
  <varray name="positions" >
   <v>       0.00000000       0.00000000       0.00000000 </v>
   <v>       0.25000000       0.25000000       0.25000000 </v>
  </varray>
 </structure>
</modeling>
