 running on   54 total cores
 distrk:  each k-point on    9 cores,    6 groups
 distr:  one band on    3 cores,    3 groups
 using from now: INCAR     
 vasp.5.4.4.18Apr17-6-g9f103f2a35 (build Sep 10 2021 22:26:18) complex          
  
 POSCAR found type information on POSCAR  In As
 POSCAR found :  2 types and       2 ions
 scaLAPACK will be used

 ----------------------------------------------------------------------------- 
|                                                                             |
|           W    W    AA    RRRRR   N    N  II  N    N   GGGG   !!!           |
|           W    W   A  A   R    R  NN   N  II  NN   N  G    G  !!!           |
|           W    W  A    A  R    R  N N  N  II  N N  N  G       !!!           |
|           W WW W  AAAAAA  RRRRR   N  N N  II  N  N N  G  GGG   !            |
|           WW  WW  A    A  R   R   N   NN  II  N   NN  G    G                |
|           W    W  A    A  R    R  N    N  II  N    N   GGGG   !!!           |
|                                                                             |
|      For optimal performance we recommend to set                            |
|        NCORE= 4 - approx SQRT( number of cores)                             |
|      NCORE specifies how many cores store one orbital (NPAR=cpu/NCORE).     |
|      This setting can  greatly improve the performance of VASP for DFT.     |
|      The default,   NCORE=1            might be grossly inefficient         |
|      on modern multi-core architectures or massively parallel machines.     |
|      Do your own testing !!!!                                               |
|      Unfortunately you need to use the default for GW and RPA calculations. |
|      (for HF NCORE is supported but not extensively tested yet)             |
|                                                                             |
 ----------------------------------------------------------------------------- 


 ----------------------------------------------------------------------------- 
|                                                                             |
|           W    W    AA    RRRRR   N    N  II  N    N   GGGG   !!!           |
|           W    W   A  A   R    R  NN   N  II  NN   N  G    G  !!!           |
|           W    W  A    A  R    R  N N  N  II  N N  N  G       !!!           |
|           W WW W  AAAAAA  RRRRR   N  N N  II  N  N N  G  GGG   !            |
|           WW  WW  A    A  R   R   N   NN  II  N   NN  G    G                |
|           W    W  A    A  R    R  N    N  II  N    N   GGGG   !!!           |
|                                                                             |
|      You have enabled k-point parallelism (KPAR>1).                         |
|      This developmental code was originally  written by Paul Kent at ORNL,  |
|      and carefully double checked in Vienna.                                |
|      GW as well as linear response parallelism added by Martijn Marsman     |
|      and Georg Kresse.                                                      |
|      Carefully verify results versus KPAR=1.                                |
|      Report problems to Paul Kent and Vienna.                               |
|                                                                             |
 ----------------------------------------------------------------------------- 

 LDA part: xc-table for Pade appr. of Perdew
 POSCAR, INCAR and KPOINTS ok, starting setup
 FFT: planning ...
 WAVECAR not read
 entering main loop
       N       E                     dE             d eps       ncg     rms          ort
DAV:   1     0.323998143603E+02    0.32400E+02   -0.27162E+03   630   0.541E+02
DAV:   2    -0.527049633661E+01   -0.37670E+02   -0.33644E+02   630   0.111E+02
DAV:   3    -0.110840349757E+02   -0.58135E+01   -0.54060E+01   630   0.479E+01
DAV:   4    -0.119366901401E+02   -0.85266E+00   -0.81208E+00   630   0.190E+01
DAV:   5    -0.120772766697E+02   -0.14059E+00   -0.13530E+00   630   0.722E+00
 gam= 0.000 g(H,U,f)=  0.144E+01 0.896E+00-0.155E-06 ort(H,U,f) = 0.000E+00 0.000E+00 0.000E+00
SDA:   6    -0.104967669910E+02    0.15805E+01   -0.93324E+00   630   0.233E+01 0.000E+00
 gam= 0.382 g(H,U,f)=  0.998E-01 0.233E+00-0.210E-05 ort(H,U,f) = 0.320E+00 0.462E+00-0.625E-06
DMP:   7    -0.111187959403E+02   -0.62203E+00   -0.25265E+00   630   0.333E+00 0.782E+00
 gam= 0.382 g(H,U,f)=  0.121E+00 0.198E-01-0.581E-05 ort(H,U,f) =-0.173E+00 0.118E+00-0.593E-05
DMP:   8    -0.112341977260E+02   -0.11540E+00   -0.47911E-01   630   0.141E+00-0.548E-01
 gam= 0.382 g(H,U,f)=  0.109E+00 0.899E-03-0.900E-05 ort(H,U,f) = 0.219E-01 0.502E-02-0.157E-04
DMP:   9    -0.112637168016E+02   -0.29519E-01   -0.48236E-01   630   0.110E+00 0.269E-01
 gam= 0.382 g(H,U,f)=  0.250E-01 0.531E-03-0.384E-05 ort(H,U,f) = 0.417E-01 0.143E-02-0.841E-05
DMP:  10    -0.112964639255E+02   -0.32747E-01   -0.16815E-01   630   0.256E-01 0.431E-01
 gam= 0.382 g(H,U,f)=  0.604E-02 0.698E-03 0.109E-05 ort(H,U,f) =-0.175E-04 0.220E-02 0.272E-05
DMP:  11    -0.113053251260E+02   -0.88612E-02   -0.30292E-02   630   0.674E-02 0.219E-02
 gam= 0.382 g(H,U,f)=  0.439E-02 0.603E-03 0.154E-05 ort(H,U,f) =-0.133E-02 0.143E-02 0.429E-05
DMP:  12    -0.113068598776E+02   -0.15348E-02   -0.20143E-02   630   0.500E-02 0.103E-03
 gam= 0.382 g(H,U,f)=  0.131E-02 0.141E-03 0.173E-06 ort(H,U,f) = 0.107E-02 0.548E-03 0.496E-06
DMP:  13    -0.113081989892E+02   -0.13391E-02   -0.82605E-03   630   0.145E-02 0.162E-02
 gam= 0.382 g(H,U,f)=  0.283E-03 0.332E-04 0.411E-06 ort(H,U,f) = 0.837E-04 0.221E-04 0.136E-05
DMP:  14    -0.113086251012E+02   -0.42611E-03   -0.14288E-03   630   0.316E-03 0.107E-03
 gam= 0.382 g(H,U,f)=  0.188E-03 0.559E-04 0.285E-07 ort(H,U,f) =-0.657E-04-0.680E-05 0.145E-06
DMP:  15    -0.113086910681E+02   -0.65967E-04   -0.86617E-04   630   0.244E-03-0.724E-04
 gam= 0.382 g(H,U,f)=  0.727E-04 0.315E-04 0.614E-07 ort(H,U,f) = 0.454E-04 0.373E-04 0.242E-06
DMP:  16    -0.113087424840E+02   -0.51416E-04   -0.54370E-04   630   0.104E-03 0.830E-04
 gam= 0.382 g(H,U,f)=  0.166E-04 0.693E-05 0.228E-07 ort(H,U,f) = 0.135E-04 0.219E-04 0.922E-07
DMP:  17    -0.113087767682E+02   -0.34284E-04   -0.14854E-04   630   0.236E-04 0.355E-04
 gam= 0.382 g(H,U,f)=  0.108E-04 0.625E-06 0.183E-08 ort(H,U,f) =-0.156E-05 0.429E-05 0.757E-08
DMP:  18    -0.113087932026E+02   -0.16434E-04   -0.49914E-05   630   0.114E-04 0.274E-05
 gam= 0.382 g(H,U,f)=  0.610E-05 0.119E-06 0.269E-08 ort(H,U,f) = 0.387E-05 0.337E-06 0.122E-07
DMP:  19    -0.113087881178E+02    0.50847E-05   -0.31331E-05   630   0.622E-05 0.422E-05
 final diagonalization
   1 F= -.11308788E+02 E0= -.11308794E+02  d E =0.172514E-04  mag=     0.0000     0.0000    -0.0000
 writing wavefunctions
