 running on   56 total cores
 distrk:  each k-point on   56 cores,    1 groups
 distr:  one band on    1 cores,   56 groups
 using from now: INCAR     
 vasp.5.4.4.18Apr17-6-g9f103f2a35 (build Nov 08 2017 12:56:59) complex          
  
 POSCAR found type information on POSCAR  In As
 POSCAR found :  2 types and       2 ions
 scaLAPACK will be used

 ----------------------------------------------------------------------------- 
|                                                                             |
|           W    W    AA    RRRRR   N    N  II  N    N   GGGG   !!!           |
|           W    W   A  A   R    R  NN   N  II  NN   N  G    G  !!!           |
|           W    W  A    A  R    R  N N  N  II  N N  N  G       !!!           |
|           W WW W  AAAAAA  RRRRR   N  N N  II  N  N N  G  GGG   !            |
|           WW  WW  A    A  R   R   N   NN  II  N   NN  G    G                |
|           W    W  A    A  R    R  N    N  II  N    N   GGGG   !!!           |
|                                                                             |
|      For optimal performance we recommend to set                            |
|        NCORE= 4 - approx SQRT( number of cores)                             |
|      NCORE specifies how many cores store one orbital (NPAR=cpu/NCORE).     |
|      This setting can  greatly improve the performance of VASP for DFT.     |
|      The default,   NCORE=1            might be grossly inefficient         |
|      on modern multi-core architectures or massively parallel machines.     |
|      Do your own testing !!!!                                               |
|      Unfortunately you need to use the default for GW and RPA calculations. |
|      (for HF NCORE is supported but not extensively tested yet)             |
|                                                                             |
 ----------------------------------------------------------------------------- 

 LDA part: xc-table for Pade appr. of Perdew
 POSCAR, INCAR and KPOINTS ok, starting setup
 FFT: planning ...
 WAVECAR not read
 entering main loop
       N       E                     dE             d eps       ncg     rms          ort
DAV:   1     0.191753179767E+01    0.19175E+01   -0.30029E+03  1232   0.178E+02
DAV:   2    -0.134062848772E+02   -0.15324E+02   -0.15324E+02  1232   0.277E+01
DAV:   3    -0.135442738086E+02   -0.13799E+00   -0.13799E+00  1232   0.355E+00
DAV:   4    -0.135452200085E+02   -0.94620E-03   -0.94620E-03  1232   0.269E-01
DAV:   5    -0.135452295745E+02   -0.95659E-05   -0.95659E-05  1232   0.281E-02
 gam= 0.000 g(H,U,f)=  0.925E+00 0.406E+01-0.392E-07 ort(H,U,f) = 0.000E+00 0.000E+00 0.000E+00
SDA:   6    -0.949977158496E+01    0.40455E+01   -0.19955E+01  1232   0.499E+01 0.000E+00
 gam= 0.382 g(H,U,f)=  0.121E+00 0.144E+01-0.634E-09 ort(H,U,f) = 0.324E+00 0.245E+01-0.202E-08
DMP:   7    -0.110456971110E+02   -0.15459E+01   -0.10458E+01  1232   0.156E+01 0.277E+01
 gam= 0.382 g(H,U,f)=  0.237E-01 0.194E+00 0.537E-10 ort(H,U,f) =-0.640E-01 0.876E+00-0.210E-09
DMP:   8    -0.117268122509E+02   -0.68112E+00   -0.21134E+00  1232   0.218E+00 0.812E+00
 gam= 0.382 g(H,U,f)=  0.736E-01 0.222E-02 0.671E-10 ort(H,U,f) =-0.222E-01 0.119E-01-0.109E-09
DMP:   9    -0.118299664355E+02   -0.10315E+00   -0.28728E-01  1232   0.758E-01-0.104E-01
 gam= 0.382 g(H,U,f)=  0.404E-01 0.212E-01-0.410E-05 ort(H,U,f) = 0.460E-01-0.627E-01 0.149E-04
DMP:  10    -0.118410689150E+02   -0.11102E-01   -0.22106E-01  1232   0.616E-01-0.166E-01
 gam= 0.382 g(H,U,f)=  0.698E-02 0.180E-01-0.867E-05 ort(H,U,f) = 0.223E-01-0.304E-02 0.353E-05
DMP:  11    -0.118560397009E+02   -0.14971E-01   -0.12945E-01  1232   0.250E-01 0.192E-01
 gam= 0.382 g(H,U,f)=  0.101E-02 0.583E-02-0.364E-06 ort(H,U,f) =-0.110E-02 0.970E-02-0.570E-06
DMP:  12    -0.118642929759E+02   -0.82533E-02   -0.40513E-02  1232   0.684E-02 0.860E-02
 gam= 0.382 g(H,U,f)=  0.223E-02 0.825E-03-0.295E-08 ort(H,U,f) =-0.206E-02 0.354E-02-0.153E-07
DMP:  13    -0.118666358193E+02   -0.23428E-02   -0.14472E-02  1232   0.305E-02 0.148E-02
 gam= 0.382 g(H,U,f)=  0.157E-02 0.743E-04 0.732E-11 ort(H,U,f) = 0.898E-03 0.325E-03 0.126E-09
DMP:  14    -0.118676079239E+02   -0.97210E-03   -0.84460E-03  1232   0.164E-02 0.122E-02
 gam= 0.382 g(H,U,f)=  0.469E-03 0.538E-04-0.222E-10 ort(H,U,f) = 0.911E-03-0.524E-04 0.113E-09
DMP:  15    -0.118682016145E+02   -0.59369E-03   -0.34013E-03  1232   0.522E-03 0.859E-03
 gam= 0.382 g(H,U,f)=  0.761E-04 0.265E-04-0.921E-11 ort(H,U,f) = 0.186E-03 0.120E-04 0.147E-10
DMP:  16    -0.118684101202E+02   -0.20851E-03   -0.71342E-04  1232   0.103E-03 0.198E-03
 gam= 0.382 g(H,U,f)=  0.378E-04 0.711E-05-0.581E-12 ort(H,U,f) =-0.298E-04 0.164E-04-0.135E-13
DMP:  17    -0.118684422701E+02   -0.32150E-04   -0.15915E-04  1232   0.449E-04-0.134E-04
 final diagonalization
   1 F= -.11868442E+02 E0= -.11868451E+02  d E =0.268441E-04  mag=     0.0000    -0.0000    -0.0000
 writing wavefunctions
