<?xml version="1.0" encoding="ISO-8859-1"?>
<modeling>
 <generator>
  <i name="program" type="string">vasp </i>
  <i name="version" type="string">5.4.4.18Apr17-6-g9f103f2a35  </i>
  <i name="subversion" type="string">(build Nov 08 2017 12:56:59) complex            parallel </i>
  <i name="platform" type="string">LinuxIFC </i>
  <i name="date" type="string">2021 06 03 </i>
  <i name="time" type="string">11:57:54 </i>
 </generator>
 <incar>
  <i type="int" name="ISTART">     0</i>
  <i type="string" name="PREC">n</i>
  <i type="string" name="ALGO"> Fast</i>
  <i type="logical" name="LSORBIT"> T  </i>
  <v name="SAXIS">      0.00000000      0.00000000      1.00000000</v>
  <i type="int" name="ISPIN">     2</i>
  <i name="BMIX">      3.00000000</i>
  <i name="AMIN">      0.01000000</i>
  <i type="int" name="ICHARG">     2</i>
  <i name="EDIFF">      0.00001000</i>
  <i name="ENCUT">    400.00000000</i>
  <i type="int" name="NBANDS">    21</i>
  <v name="MAGMOM">      0.00000000      0.00000000      0.00000000      0.00000000      0.00000000      0.00000000</v>
  <i name="SIGMA">      0.05000000</i>
  <i type="int" name="LMAXMIX">     4</i>
  <v type="int" name="KPOINT_BSE">    -1     0     0     0</v>
  <i type="string" name="GGA"> PE</i>
  <i type="logical" name="LDAU"> T  </i>
  <v type="int" name="LDAUL">     1     1</v>
  <v name="LDAUU">     -0.08300000     -7.01400000</v>
  <v name="LDAUJ">      0.00000000      0.00000000</v>
 </incar>
 <structure name="primitive_cell" >
  <crystal>
   <varray name="basis" >
    <v>       0.00000000       3.02920000       3.02920000 </v>
    <v>       3.02920000       0.00000000       3.02920000 </v>
    <v>       3.02920000       3.02920000       0.00000000 </v>
   </varray>
   <i name="volume">     55.59219731 </i>
   <varray name="rec_basis" >
    <v>      -0.16506008       0.16506008       0.16506008 </v>
    <v>       0.16506008      -0.16506008       0.16506008 </v>
    <v>       0.16506008       0.16506008      -0.16506008 </v>
   </varray>
  </crystal>
  <varray name="positions" >
   <v>       0.00000000       0.00000000       0.00000000 </v>
   <v>      -0.25000000      -0.25000000      -0.25000000 </v>
  </varray>
 </structure>
 <varray name="primitive_index" >
  <v type="int" >        1 </v>
  <v type="int" >        2 </v>
 </varray>
 <kpoints>
  <generation param="Gamma">
   <v type="int" name="divisions">       7        7        7 </v>
   <v name="usershift">      0.00000000       0.00000000       0.00000000 </v>
   <v name="genvec1">      0.14285714       0.00000000       0.00000000 </v>
   <v name="genvec2">      0.00000000       0.14285714       0.00000000 </v>
   <v name="genvec3">      0.00000000       0.00000000       0.14285714 </v>
   <v name="shift">      0.00000000       0.00000000       0.00000000 </v>
  </generation>
  <varray name="kpointlist" >
   <v>       0.00000000       0.00000000       0.00000000 </v>
   <v>       0.14285714       0.00000000       0.00000000 </v>
   <v>       0.28571429       0.00000000       0.00000000 </v>
   <v>       0.42857143       0.00000000       0.00000000 </v>
   <v>      -0.42857143       0.00000000       0.00000000 </v>
   <v>      -0.28571429       0.00000000       0.00000000 </v>
   <v>      -0.14285714       0.00000000       0.00000000 </v>
   <v>       0.14285714       0.14285714       0.00000000 </v>
   <v>       0.28571429       0.14285714       0.00000000 </v>
   <v>       0.42857143       0.14285714       0.00000000 </v>
   <v>      -0.42857143       0.14285714       0.00000000 </v>
   <v>      -0.28571429       0.14285714       0.00000000 </v>
   <v>      -0.14285714       0.14285714       0.00000000 </v>
   <v>       0.28571429       0.28571429       0.00000000 </v>
   <v>       0.42857143       0.28571429       0.00000000 </v>
   <v>      -0.42857143       0.28571429       0.00000000 </v>
   <v>      -0.28571429       0.28571429       0.00000000 </v>
   <v>      -0.14285714       0.28571429       0.00000000 </v>
   <v>       0.42857143       0.42857143       0.00000000 </v>
   <v>      -0.42857143       0.42857143       0.00000000 </v>
   <v>      -0.28571429       0.42857143       0.00000000 </v>
   <v>      -0.14285714       0.42857143       0.00000000 </v>
   <v>      -0.28571429      -0.42857143       0.00000000 </v>
   <v>      -0.14285714      -0.42857143       0.00000000 </v>
   <v>      -0.14285714      -0.28571429       0.00000000 </v>
   <v>       0.42857143       0.28571429       0.14285714 </v>
   <v>      -0.42857143       0.28571429       0.14285714 </v>
   <v>      -0.28571429       0.28571429       0.14285714 </v>
   <v>      -0.42857143       0.42857143       0.14285714 </v>
   <v>      -0.28571429       0.42857143       0.14285714 </v>
  </varray>
  <varray name="weights" >
   <v>       0.00291545 </v>
   <v>       0.01166181 </v>
   <v>       0.01166181 </v>
   <v>       0.01166181 </v>
   <v>       0.01166181 </v>
   <v>       0.01166181 </v>
   <v>       0.01166181 </v>
   <v>       0.01749271 </v>
   <v>       0.03498542 </v>
   <v>       0.03498542 </v>
   <v>       0.03498542 </v>
   <v>       0.03498542 </v>
   <v>       0.03498542 </v>
   <v>       0.01749271 </v>
   <v>       0.03498542 </v>
   <v>       0.03498542 </v>
   <v>       0.03498542 </v>
   <v>       0.03498542 </v>
   <v>       0.01749271 </v>
   <v>       0.03498542 </v>
   <v>       0.03498542 </v>
   <v>       0.03498542 </v>
   <v>       0.03498542 </v>
   <v>       0.03498542 </v>
   <v>       0.03498542 </v>
   <v>       0.06997085 </v>
   <v>       0.06997085 </v>
   <v>       0.06997085 </v>
   <v>       0.06997085 </v>
   <v>       0.06997085 </v>
  </varray>
 </kpoints>
 <parameters>
  <separator name="general" >
   <i type="string" name="SYSTEM">unknown system</i>
   <i type="logical" name="LCOMPAT"> F  </i>
  </separator>
  <separator name="electronic" >
   <i type="string" name="PREC">n</i>
   <i name="ENMAX">    400.00000000</i>
   <i name="ENAUG">    462.75800000</i>
   <i name="EDIFF">      0.00001000</i>
   <i type="int" name="IALGO">    68</i>
   <i type="int" name="IWAVPR">    10</i>
   <i type="int" name="NBANDS">    21</i>
   <i name="NELECT">      8.00000000</i>
   <i type="int" name="TURBO">     0</i>
   <i type="int" name="IRESTART">     0</i>
   <i type="int" name="NREBOOT">     0</i>
   <i type="int" name="NMIN">     0</i>
   <i name="EREF">      0.00000000</i>
   <separator name="electronic smearing" >
    <i type="int" name="ISMEAR">     1</i>
    <i name="SIGMA">      0.05000000</i>
    <i name="KSPACING">      0.50000000</i>
    <i type="logical" name="KGAMMA"> T  </i>
   </separator>
   <separator name="electronic projectors" >
    <i type="logical" name="LREAL"> F  </i>
    <v name="ROPT">      0.00000000      0.00000000</v>
    <i type="int" name="LMAXPAW">  -100</i>
    <i type="int" name="LMAXMIX">     4</i>
    <i type="logical" name="NLSPLINE"> F  </i>
   </separator>
   <separator name="electronic startup" >
    <i type="int" name="ISTART">     0</i>
    <i type="int" name="ICHARG">     2</i>
    <i type="int" name="INIWAV">     1</i>
   </separator>
   <separator name="electronic spin" >
    <i type="int" name="ISPIN">     1</i>
    <i type="logical" name="LNONCOLLINEAR"> T  </i>
    <v name="MAGMOM">      0.00000000      0.00000000      0.00000000      0.00000000      0.00000000      0.00000000</v>
    <i name="NUPDOWN">     -1.00000000</i>
    <i type="logical" name="LSORBIT"> T  </i>
    <v name="SAXIS">      0.00000000      0.00000000      1.00000000</v>
    <i type="logical" name="LSPIRAL"> F  </i>
    <v name="QSPIRAL">      0.00000000      0.00000000      0.00000000</v>
    <i type="logical" name="LZEROZ"> F  </i>
   </separator>
   <separator name="electronic exchange-correlation" >
    <i type="logical" name="LASPH"> F  </i>
    <i type="logical" name="LMETAGGA"> F  </i>
   </separator>
   <separator name="electronic convergence" >
    <i type="int" name="NELM">    60</i>
    <i type="int" name="NELMDL">    -5</i>
    <i type="int" name="NELMIN">     2</i>
    <i name="ENINI">    400.00000000</i>
    <separator name="electronic convergence detail" >
     <i type="logical" name="LDIAG"> T  </i>
     <i type="logical" name="LSUBROT"> F  </i>
     <i name="WEIMIN">      0.00000000</i>
     <i name="EBREAK">      0.00000012</i>
     <i name="DEPER">      0.30000000</i>
     <i type="int" name="NRMM">     4</i>
     <i name="TIME">      0.40000000</i>
    </separator>
   </separator>
   <separator name="electronic mixer" >
    <i name="AMIX">      0.40000000</i>
    <i name="BMIX">      3.00000000</i>
    <i name="AMIN">      0.01000000</i>
    <i name="AMIX_MAG">      1.60000000</i>
    <i name="BMIX_MAG">      3.00000000</i>
    <separator name="electronic mixer details" >
     <i type="int" name="IMIX">     4</i>
     <i type="logical" name="MIXFIRST"> F  </i>
     <i type="int" name="MAXMIX">   -45</i>
     <i name="WC">    100.00000000</i>
     <i type="int" name="INIMIX">     1</i>
     <i type="int" name="MIXPRE">     1</i>
     <i type="int" name="MREMOVE">     5</i>
    </separator>
   </separator>
   <separator name="electronic dipolcorrection" >
    <i type="logical" name="LDIPOL"> F  </i>
    <i type="logical" name="LMONO"> F  </i>
    <i type="int" name="IDIPOL">     0</i>
    <i name="EPSILON">      1.00000000</i>
    <v name="DIPOL">   -100.00000000   -100.00000000   -100.00000000</v>
    <i name="EFIELD">      0.00000000</i>
   </separator>
  </separator>
  <separator name="grids" >
   <i type="int" name="NGX">    24</i>
   <i type="int" name="NGY">    24</i>
   <i type="int" name="NGZ">    24</i>
   <i type="int" name="NGXF">    48</i>
   <i type="int" name="NGYF">    48</i>
   <i type="int" name="NGZF">    48</i>
   <i type="logical" name="ADDGRID"> F  </i>
  </separator>
  <separator name="ionic" >
   <i type="int" name="NSW">     0</i>
   <i type="int" name="IBRION">    -1</i>
   <i type="int" name="MDALGO">     0</i>
   <i type="int" name="ISIF">     2</i>
   <i name="PSTRESS">      0.00000000</i>
   <i name="EDIFFG">      0.00010000</i>
   <i type="int" name="NFREE">     0</i>
   <i name="POTIM">      0.50000000</i>
   <i name="SMASS">     -3.00000000</i>
   <i name="SCALEE">      1.00000000</i>
  </separator>
  <separator name="ionic md" >
   <i name="TEBEG">      0.00010000</i>
   <i name="TEEND">      0.00010000</i>
   <i type="int" name="NBLOCK">     1</i>
   <i type="int" name="KBLOCK">     1</i>
   <i type="int" name="NPACO">   256</i>
   <i name="APACO">     16.00000000</i>
  </separator>
  <separator name="symmetry" >
   <i type="int" name="ISYM">     2</i>
   <i name="SYMPREC">      0.00001000</i>
  </separator>
  <separator name="dos" >
   <i type="int" name="LORBIT">     0</i>
   <v name="RWIGS">     -1.00000000     -1.00000000</v>
   <i type="int" name="NEDOS">   301</i>
   <i name="EMIN">     10.00000000</i>
   <i name="EMAX">    -10.00000000</i>
   <i name="EFERMI">      0.00000000</i>
  </separator>
  <separator name="writing" >
   <i type="int" name="NWRITE">     2</i>
   <i type="logical" name="LWAVE"> T  </i>
   <i type="logical" name="LDOWNSAMPLE"> F  </i>
   <i type="logical" name="LCHARG"> T  </i>
   <i type="logical" name="LPARD"> F  </i>
   <i type="logical" name="LVTOT"> F  </i>
   <i type="logical" name="LVHAR"> F  </i>
   <i type="logical" name="LELF"> F  </i>
   <i type="logical" name="LOPTICS"> F  </i>
   <v name="STM">      0.00000000      0.00000000      0.00000000      0.00000000      0.00000000      0.00000000      0.00000000</v>
  </separator>
  <separator name="performance" >
   <i type="int" name="NPAR">     7</i>
   <i type="int" name="NSIM">     4</i>
   <i type="int" name="NBLK">    -1</i>
   <i type="logical" name="LPLANE"> T  </i>
   <i type="logical" name="LSCALAPACK"> T  </i>
   <i type="logical" name="LSCAAWARE"> F  </i>
   <i type="logical" name="LSCALU"> F  </i>
   <i type="logical" name="LASYNC"> F  </i>
   <i type="logical" name="LORBITALREAL"> F  </i>
  </separator>
  <separator name="miscellaneous" >
   <i type="int" name="IDIOT">     3</i>
   <i type="int" name="ISPECIAL">     0</i>
   <i type="logical" name="LMUSIC"> F  </i>
   <v name="POMASS">    114.82000000     74.92200000</v>
   <v name="DARWINR">      0.00000000      0.00000000</v>
   <v name="DARWINV">      1.00000000      1.00000000</v>
   <i type="logical" name="LCORR"> T  </i>
  </separator>
  <i type="logical" name="GGA_COMPAT"> T  </i>
  <i type="logical" name="LBERRY"> F  </i>
  <i type="int" name="ICORELEVEL">     0</i>
  <i type="logical" name="LDAU"> T  </i>
  <v type="int" name="LDAUTYPE">     2</v>
  <v type="int" name="LDAUL">     1</v>
  <v name="LDAUU">     -0.08300000</v>
  <v name="LDAUJ">      0.00000000</v>
  <i type="int" name="LDAUPRINT">     0</i>
  <i type="int" name="I_CONSTRAINED_M">     0</i>
  <separator name="electronic exchange-correlation" >
   <i type="string" name="GGA">PE</i>
   <i type="int" name="VOSKOWN">     0</i>
   <i type="logical" name="LHFCALC"> F  </i>
   <i type="string" name="PRECFOCK"></i>
   <i type="logical" name="LSYMGRAD"> F  </i>
   <i type="logical" name="LHFONE"> F  </i>
   <i type="logical" name="LRHFCALC"> F  </i>
   <i type="logical" name="LTHOMAS"> F  </i>
   <i type="logical" name="LMODELHF"> F  </i>
   <i name="ENCUT4O">     -1.00000000</i>
   <i type="int" name="EXXOEP">     0</i>
   <i type="int" name="FOURORBIT">     0</i>
   <i name="AEXX">      0.00000000</i>
   <i name="HFALPHA">      0.00000000</i>
   <i name="MCALPHA">      0.00000000</i>
   <i name="ALDAX">      1.00000000</i>
   <i name="AGGAX">      1.00000000</i>
   <i name="ALDAC">      1.00000000</i>
   <i name="AGGAC">      1.00000000</i>
   <i type="int" name="NKREDX">     1</i>
   <i type="int" name="NKREDY">     1</i>
   <i type="int" name="NKREDZ">     1</i>
   <i type="logical" name="SHIFTRED"> F  </i>
   <i type="logical" name="ODDONLY"> F  </i>
   <i type="logical" name="EVENONLY"> F  </i>
   <i type="int" name="LMAXFOCK">     0</i>
   <i type="int" name="NMAXFOCKAE">     0</i>
   <i type="logical" name="LFOCKAEDFT"> F  </i>
   <i name="HFSCREEN">      0.00000000</i>
   <i name="HFSCREENC">      0.00000000</i>
   <i type="int" name="NBANDSGWLOW">     0</i>
  </separator>
  <separator name="vdW DFT" >
   <i type="logical" name="LUSE_VDW"> F  </i>
   <i name="Zab_VDW">     -0.84910000</i>
   <i name="PARAM1">      0.12340000</i>
   <i name="PARAM2">      1.00000000</i>
   <i name="PARAM3">      0.00000000</i>
  </separator>
  <separator name="model GW" >
   <i type="int" name="MODEL_GW">     0</i>
   <i name="MODEL_EPS0">     16.67765919</i>
   <i name="MODEL_ALPHA">      1.00000000</i>
  </separator>
  <separator name="linear response parameters" >
   <i type="logical" name="LEPSILON"> F  </i>
   <i type="logical" name="LRPA"> F  </i>
   <i type="logical" name="LNABLA"> F  </i>
   <i type="logical" name="LVEL"> F  </i>
   <i type="int" name="KINTER">     0</i>
   <i name="CSHIFT">      0.10000000</i>
   <i name="OMEGAMAX">     -1.00000000</i>
   <i name="DEG_THRESHOLD">      0.00200000</i>
   <i name="RTIME">     -0.10000000</i>
   <i name="WPLASMAI">      0.00000000</i>
   <v name="DFIELD">      0.00000000      0.00000000      0.00000000</v>
   <v name="WPLASMA">      0.00000000      0.00000000      0.00000000      0.00000000      0.00000000      0.00000000      0.00000000      0.00000000      0.00000000</v>
  </separator>
  <separator name="orbital magnetization" >
   <i type="logical" name="NUCIND"> F  </i>
   <v name="MAGPOS">      0.00000000      0.00000000      0.00000000</v>
   <i type="logical" name="LNICSALL"> T  </i>
   <i type="logical" name="ORBITALMAG"> F  </i>
   <i type="logical" name="LMAGBLOCH"> F  </i>
   <i type="logical" name="LCHIMAG"> F  </i>
   <i type="logical" name="LGAUGE"> T  </i>
   <i type="int" name="MAGATOM">     0</i>
   <v name="MAGDIPOL">      0.00000000      0.00000000      0.00000000</v>
   <v name="AVECCONST">      0.00000000      0.00000000      0.00000000</v>
  </separator>
  <separator name="response functions" >
   <i type="logical" name="LADDER"> F  </i>
   <i type="logical" name="LRPAFORCE"> F  </i>
   <i type="logical" name="LFXC"> F  </i>
   <i type="logical" name="LHARTREE"> T  </i>
   <i type="int" name="IBSE">     0</i>
   <v type="int" name="KPOINT">    -1     0     0     0</v>
   <i type="logical" name="LTCTE"> F  </i>
   <i type="logical" name="LTETE"> F  </i>
   <i type="logical" name="LTRIPLET"> F  </i>
   <i type="logical" name="LFXCEPS"> F  </i>
   <i type="logical" name="LFXHEG"> F  </i>
   <i type="int" name="NATURALO">     2</i>
   <i type="logical" name="L2ORDER"> F  </i>
   <i type="logical" name="LMP2LT"> F  </i>
   <i type="logical" name="LUSEW"> F  </i>
   <i name="ENCUTGW">     -2.00000000</i>
   <i name="ENCUTGWSOFT">     -2.00000000</i>
   <i name="ENCUTLF">     -1.00000000</i>
   <i type="int" name="LMAXMP2">    -1</i>
   <i name="SCISSOR">      0.00000000</i>
   <i type="int" name="NOMEGA">     0</i>
   <i type="int" name="NOMEGAR">     0</i>
   <i type="int" name="NBANDSGW">    -1</i>
   <i type="int" name="NBANDSO">    -1</i>
   <i type="int" name="NBANDSV">    -1</i>
   <i type="int" name="NELM">     1</i>
   <i type="int" name="NELMHF">     1</i>
   <i type="int" name="DIM">     3</i>
   <i type="int" name="ANTIRES">     0</i>
   <i name="OMEGAMAX">    -30.00000000</i>
   <i name="OMEGAMIN">    -30.00000000</i>
   <i name="OMEGATL">   -200.00000000</i>
   <i type="int" name="OMEGAGRID">   140</i>
   <i name="CSHIFT">     -0.10000000</i>
   <i type="logical" name="SELFENERGY"> F  </i>
   <i type="logical" name="LSPECTRAL"> F  </i>
   <i type="logical" name="LSPECTRALGW"> F  </i>
   <i type="logical" name="LSINGLES"> F  </i>
   <i type="logical" name="LFERMIGW"> F  </i>
   <i type="logical" name="ODDONLYGW"> F  </i>
   <i type="logical" name="EVENONLYGW"> F  </i>
   <i type="int" name="NKREDLFX">     1</i>
   <i type="int" name="NKREDLFY">     1</i>
   <i type="int" name="NKREDLFZ">     1</i>
   <i type="int" name="MAXMEM">  2800</i>
   <i type="int" name="TELESCOPE">     0</i>
   <i type="int" name="TAUPAR">     1</i>
   <i type="int" name="OMEGAPAR">    -1</i>
   <i name="LAMBDA">      1.00000000</i>
  </separator>
  <separator name="External order field" >
   <i name="OFIELD_KAPPA">      0.00000000</i>
   <v name="OFIELD_K">      0.00000000      0.00000000      0.00000000</v>
   <i name="OFIELD_Q6_NEAR">      0.00000000</i>
   <i name="OFIELD_Q6_FAR">      0.00000000</i>
   <i name="OFIELD_A">      0.00000000</i>
  </separator>
 </parameters>
 <atominfo>
  <atoms>       2 </atoms>
  <types>       2 </types>
  <array name="atoms" >
   <dimension dim="1">ion</dimension>
   <field type="string">element</field>
   <field type="int">atomtype</field>
   <set>
    <rc><c>In</c><c>   1</c></rc>
    <rc><c>As</c><c>   2</c></rc>
   </set>
  </array>
  <array name="atomtypes" >
   <dimension dim="1">type</dimension>
   <field type="int">atomspertype</field>
   <field type="string">element</field>
   <field>mass</field>
   <field>valence</field>
   <field type="string">pseudopotential</field>
   <set>
    <rc><c>   1</c><c>In</c><c>    114.82000000</c><c>      3.00000000</c><c>  PAW_PBE In 08Apr2002                  </c></rc>
    <rc><c>   1</c><c>As</c><c>     74.92200000</c><c>      5.00000000</c><c>  PAW_PBE As 22Sep2009                  </c></rc>
   </set>
  </array>
 </atominfo>
 <structure name="initialpos" >
  <crystal>
   <varray name="basis" >
    <v>       0.00000000       3.02920000       3.02920000 </v>
    <v>       3.02920000       0.00000000       3.02920000 </v>
    <v>       3.02920000       3.02920000       0.00000000 </v>
   </varray>
   <i name="volume">     55.59219731 </i>
   <varray name="rec_basis" >
    <v>      -0.16506008       0.16506008       0.16506008 </v>
    <v>       0.16506008      -0.16506008       0.16506008 </v>
    <v>       0.16506008       0.16506008      -0.16506008 </v>
   </varray>
  </crystal>
  <varray name="positions" >
   <v>       0.00000000       0.00000000       0.00000000 </v>
   <v>       0.75000000       0.75000000       0.75000000 </v>
  </varray>
 </structure>
 <calculation>
  <scstep>
   <time name="dav">    0.40    0.40</time>
   <time name="total">    0.57    0.58</time>
   <energy>
    <i name="alphaZ">      6.67624893 </i>
    <i name="ewald">   -213.84743004 </i>
    <i name="hartreedc">    -21.29595069 </i>
    <i name="XCdc">    -67.69638834 </i>
    <i name="pawpsdc">    241.28716127 </i>
    <i name="pawaedc">   -161.37627230 </i>
    <i name="eentropy">      0.00016920 </i>
    <i name="bandstr">      7.70511213 </i>
    <i name="atom">    223.97621261 </i>
    <i name="e_fr_energy">     15.42886277 </i>
    <i name="e_wo_entrp">     15.42869357 </i>
    <i name="e_0_energy">     15.42880637 </i>
   </energy>
  </scstep>
  <scstep>
   <time name="dav">    0.47    0.47</time>
   <time name="total">    0.47    0.47</time>
   <energy>
    <i name="e_fr_energy">    -11.53848004 </i>
    <i name="e_wo_entrp">    -11.53848426 </i>
    <i name="e_0_energy">    -11.53848144 </i>
   </energy>
  </scstep>
  <scstep>
   <time name="dav">    0.46    0.46</time>
   <time name="total">    0.46    0.46</time>
   <energy>
    <i name="e_fr_energy">    -12.95831729 </i>
    <i name="e_wo_entrp">    -12.95833426 </i>
    <i name="e_0_energy">    -12.95832295 </i>
   </energy>
  </scstep>
  <scstep>
   <time name="dav">    0.43    0.43</time>
   <time name="total">    0.43    0.43</time>
   <energy>
    <i name="e_fr_energy">    -12.96862050 </i>
    <i name="e_wo_entrp">    -12.96863740 </i>
    <i name="e_0_energy">    -12.96862613 </i>
   </energy>
  </scstep>
  <scstep>
   <time name="dav">    0.45    0.45</time>
   <time name="total">    0.53    0.53</time>
   <energy>
    <i name="e_fr_energy">    -12.96868427 </i>
    <i name="e_wo_entrp">    -12.96870117 </i>
    <i name="e_0_energy">    -12.96868990 </i>
   </energy>
  </scstep>
  <scstep>
   <time name="diag">    0.11    0.11</time>
   <time name="diis">    0.25    0.25</time>
   <time name="orth">    0.04    0.04</time>
   <time name="total">    0.65    0.65</time>
   <energy>
    <i name="e_fr_energy">    -12.36872407 </i>
    <i name="e_wo_entrp">    -12.36874098 </i>
    <i name="e_0_energy">    -12.36872971 </i>
   </energy>
  </scstep>
  <scstep>
   <time name="diag">    0.10    0.11</time>
   <time name="diis">    0.27    0.27</time>
   <time name="orth">    0.01    0.01</time>
   <time name="total">    0.66    0.67</time>
   <energy>
    <i name="e_fr_energy">    -12.09920210 </i>
    <i name="e_wo_entrp">    -12.09920806 </i>
    <i name="e_0_energy">    -12.09920409 </i>
   </energy>
  </scstep>
  <scstep>
   <time name="diag">    0.10    0.11</time>
   <time name="diis">    0.27    0.27</time>
   <time name="orth">    0.00    0.00</time>
   <time name="total">    0.64    0.65</time>
   <energy>
    <i name="e_fr_energy">    -12.15467355 </i>
    <i name="e_wo_entrp">    -12.15469098 </i>
    <i name="e_0_energy">    -12.15467936 </i>
   </energy>
  </scstep>
  <scstep>
   <time name="diag">    0.11    0.11</time>
   <time name="diis">    0.27    0.27</time>
   <time name="orth">    0.01    0.01</time>
   <time name="total">    0.64    0.64</time>
   <energy>
    <i name="e_fr_energy">    -12.13450998 </i>
    <i name="e_wo_entrp">    -12.13453018 </i>
    <i name="e_0_energy">    -12.13451671 </i>
   </energy>
  </scstep>
  <scstep>
   <time name="diag">    0.11    0.11</time>
   <time name="diis">    0.24    0.24</time>
   <time name="orth">    0.04    0.04</time>
   <time name="total">    0.63    0.63</time>
   <energy>
    <i name="e_fr_energy">    -12.17713001 </i>
    <i name="e_wo_entrp">    -12.17714350 </i>
    <i name="e_0_energy">    -12.17713451 </i>
   </energy>
  </scstep>
  <scstep>
   <time name="diag">    0.11    0.11</time>
   <time name="diis">    0.27    0.27</time>
   <time name="orth">    0.00    0.00</time>
   <time name="total">    0.66    0.66</time>
   <energy>
    <i name="e_fr_energy">    -11.99892849 </i>
    <i name="e_wo_entrp">    -11.99894540 </i>
    <i name="e_0_energy">    -11.99893413 </i>
   </energy>
  </scstep>
  <scstep>
   <time name="diag">    0.10    0.11</time>
   <time name="diis">    0.25    0.25</time>
   <time name="orth">    0.00    0.00</time>
   <time name="total">    0.64    0.64</time>
   <energy>
    <i name="e_fr_energy">    -11.99934687 </i>
    <i name="e_wo_entrp">    -11.99936378 </i>
    <i name="e_0_energy">    -11.99935251 </i>
   </energy>
  </scstep>
  <scstep>
   <time name="diag">    0.11    0.11</time>
   <time name="diis">    0.26    0.26</time>
   <time name="orth">    0.02    0.02</time>
   <time name="total">    0.66    0.66</time>
   <energy>
    <i name="e_fr_energy">    -12.00123702 </i>
    <i name="e_wo_entrp">    -12.00125393 </i>
    <i name="e_0_energy">    -12.00124266 </i>
   </energy>
  </scstep>
  <scstep>
   <time name="diag">    0.10    0.11</time>
   <time name="diis">    0.25    0.25</time>
   <time name="orth">    0.04    0.04</time>
   <time name="total">    0.66    0.67</time>
   <energy>
    <i name="e_fr_energy">    -12.00277428 </i>
    <i name="e_wo_entrp">    -12.00279118 </i>
    <i name="e_0_energy">    -12.00277991 </i>
   </energy>
  </scstep>
  <scstep>
   <time name="diag">    0.10    0.11</time>
   <time name="diis">    0.25    0.25</time>
   <time name="orth">    0.02    0.02</time>
   <time name="total">    0.64    0.64</time>
   <energy>
    <i name="e_fr_energy">    -12.00039743 </i>
    <i name="e_wo_entrp">    -12.00041433 </i>
    <i name="e_0_energy">    -12.00040307 </i>
   </energy>
  </scstep>
  <scstep>
   <time name="diag">    0.11    0.11</time>
   <time name="diis">    0.23    0.23</time>
   <time name="orth">    0.00    0.00</time>
   <time name="total">    0.60    0.61</time>
   <energy>
    <i name="e_fr_energy">    -12.00037871 </i>
    <i name="e_wo_entrp">    -12.00039561 </i>
    <i name="e_0_energy">    -12.00038434 </i>
   </energy>
  </scstep>
  <scstep>
   <time name="diag">    0.11    0.11</time>
   <time name="diis">    0.22    0.22</time>
   <time name="orth">    0.02    0.02</time>
   <time name="total">    0.52    0.52</time>
   <energy>
    <i name="alphaZ">      6.67624893 </i>
    <i name="ewald">   -213.84743004 </i>
    <i name="hartreedc">    -27.22886616 </i>
    <i name="XCdc">    -66.69140866 </i>
    <i name="pawpsdc">    571.50545035 </i>
    <i name="pawaedc">   -493.15288130 </i>
    <i name="eentropy">      0.00001690 </i>
    <i name="bandstr">    -13.23772696 </i>
    <i name="atom">    223.97621261 </i>
    <i name="e_fr_energy">    -12.00038434 </i>
    <i name="e_wo_entrp">    -12.00040124 </i>
    <i name="e_0_energy">    -12.00038997 </i>
   </energy>
  </scstep>
  <structure>
   <crystal>
    <varray name="basis" >
     <v>       0.00000000       3.02920000       3.02920000 </v>
     <v>       3.02920000       0.00000000       3.02920000 </v>
     <v>       3.02920000       3.02920000       0.00000000 </v>
    </varray>
    <i name="volume">     55.59219731 </i>
    <varray name="rec_basis" >
     <v>      -0.16506008       0.16506008       0.16506008 </v>
     <v>       0.16506008      -0.16506008       0.16506008 </v>
     <v>       0.16506008       0.16506008      -0.16506008 </v>
    </varray>
   </crystal>
   <varray name="positions" >
    <v>       0.00000000       0.00000000       0.00000000 </v>
    <v>       0.75000000       0.75000000       0.75000000 </v>
   </varray>
  </structure>
  <varray name="forces" >
   <v>       0.00000000       0.00000000       0.00000000 </v>
   <v>      -0.00000000      -0.00000000      -0.00000000 </v>
  </varray>
  <varray name="stress" >
   <v>      11.19522693       0.00000000      -0.00000000 </v>
   <v>       0.00000000      11.19522693       0.00000000 </v>
   <v>      -0.00000000       0.00000000      11.19522693 </v>
  </varray>
  <energy>
   <i name="e_fr_energy">    -12.00038434 </i>
   <i name="e_wo_entrp">    -12.00038997 </i>
   <i name="e_0_energy">      0.00001690 </i>
  </energy>
  <time name="totalsc">   12.07   12.46</time>
  <eigenvalues>
   <array>
    <dimension dim="1">band</dimension>
    <dimension dim="2">kpoint</dimension>
    <dimension dim="3">spin</dimension>
    <field>eigene</field>
    <field>occ</field>
    <set>
     <set comment="spin 1">
      <set comment="kpoint 1">
       <r>   -8.3025    1.0000 </r>
       <r>   -8.3025    1.0000 </r>
       <r>    2.6415    1.0000 </r>
       <r>    2.6415    1.0000 </r>
       <r>    2.9400    1.0000 </r>
       <r>    2.9400    1.0000 </r>
       <r>    2.9400    1.0000 </r>
       <r>    2.9400    1.0000 </r>
       <r>    3.2009   -0.0000 </r>
       <r>    3.2009   -0.0000 </r>
       <r>    6.8700    0.0000 </r>
       <r>    6.8700    0.0000 </r>
       <r>    7.3309    0.0000 </r>
       <r>    7.3309    0.0000 </r>
       <r>    7.3309    0.0000 </r>
       <r>    7.3309    0.0000 </r>
       <r>   10.7894    0.0000 </r>
       <r>   10.7894    0.0000 </r>
       <r>   12.8395    0.0000 </r>
       <r>   12.8395    0.0000 </r>
       <r>   12.8395    0.0000 </r>
      </set>
      <set comment="kpoint 2">
       <r>   -8.1203    1.0000 </r>
       <r>   -8.1203    1.0000 </r>
       <r>    0.9660    1.0000 </r>
       <r>    0.9660    1.0000 </r>
       <r>    2.5200    1.0000 </r>
       <r>    2.5200    1.0000 </r>
       <r>    2.7210    1.0000 </r>
       <r>    2.7278    1.0000 </r>
       <r>    4.3679    0.0000 </r>
       <r>    4.3679    0.0000 </r>
       <r>    7.2013    0.0000 </r>
       <r>    7.2013    0.0000 </r>
       <r>    7.4897    0.0000 </r>
       <r>    7.4897    0.0000 </r>
       <r>    7.6503    0.0000 </r>
       <r>    7.6508    0.0000 </r>
       <r>   11.7430    0.0000 </r>
       <r>   11.7431    0.0000 </r>
       <r>   11.8888    0.0000 </r>
       <r>   11.9263    0.0000 </r>
       <r>   11.9264    0.0000 </r>
      </set>
      <set comment="kpoint 3">
       <r>   -7.6262    1.0000 </r>
       <r>   -7.6262    1.0000 </r>
       <r>   -1.0265    1.0000 </r>
       <r>   -1.0265    1.0000 </r>
       <r>    2.1146    1.0000 </r>
       <r>    2.1146    1.0000 </r>
       <r>    2.3261    1.0000 </r>
       <r>    2.3332    1.0000 </r>
       <r>    4.4588    0.0000 </r>
       <r>    4.4588    0.0000 </r>
       <r>    7.7811    0.0000 </r>
       <r>    7.7811    0.0000 </r>
       <r>    8.0309    0.0000 </r>
       <r>    8.0336    0.0000 </r>
       <r>    8.6312    0.0000 </r>
       <r>    8.6312    0.0000 </r>
       <r>   11.5023    0.0000 </r>
       <r>   11.5023    0.0000 </r>
       <r>   11.9183    0.0000 </r>
       <r>   11.9184    0.0000 </r>
       <r>   11.9244    0.0000 </r>
      </set>
      <set comment="kpoint 4">
       <r>   -7.0789    1.0000 </r>
       <r>   -7.0789    1.0000 </r>
       <r>   -2.3942    1.0000 </r>
       <r>   -2.3942    1.0000 </r>
       <r>    1.8497    1.0000 </r>
       <r>    1.8497    1.0000 </r>
       <r>    2.0684    1.0000 </r>
       <r>    2.0712    1.0000 </r>
       <r>    4.2773   -0.0000 </r>
       <r>    4.2773   -0.0000 </r>
       <r>    7.8353    0.0000 </r>
       <r>    7.8353    0.0000 </r>
       <r>    8.0220    0.0000 </r>
       <r>    8.0225    0.0000 </r>
       <r>    9.8032    0.0000 </r>
       <r>    9.8032    0.0000 </r>
       <r>   11.7778    0.0000 </r>
       <r>   11.7778    0.0000 </r>
       <r>   13.2642    0.0000 </r>
       <r>   13.2644    0.0000 </r>
       <r>   13.3561    0.0000 </r>
      </set>
      <set comment="kpoint 5">
       <r>   -7.0789    1.0000 </r>
       <r>   -7.0789    1.0000 </r>
       <r>   -2.3942    1.0000 </r>
       <r>   -2.3942    1.0000 </r>
       <r>    1.8497    1.0000 </r>
       <r>    1.8497    1.0000 </r>
       <r>    2.0684    1.0000 </r>
       <r>    2.0712    1.0000 </r>
       <r>    4.2773   -0.0000 </r>
       <r>    4.2773   -0.0000 </r>
       <r>    7.8353    0.0000 </r>
       <r>    7.8353    0.0000 </r>
       <r>    8.0220    0.0000 </r>
       <r>    8.0225    0.0000 </r>
       <r>    9.8032    0.0000 </r>
       <r>    9.8032    0.0000 </r>
       <r>   11.7778    0.0000 </r>
       <r>   11.7778    0.0000 </r>
       <r>   13.2642    0.0000 </r>
       <r>   13.2643    0.0000 </r>
       <r>   13.3593    0.0000 </r>
      </set>
      <set comment="kpoint 6">
       <r>   -7.6262    1.0000 </r>
       <r>   -7.6262    1.0000 </r>
       <r>   -1.0265    1.0000 </r>
       <r>   -1.0265    1.0000 </r>
       <r>    2.1146    1.0000 </r>
       <r>    2.1146    1.0000 </r>
       <r>    2.3261    1.0000 </r>
       <r>    2.3332    1.0000 </r>
       <r>    4.4588    0.0000 </r>
       <r>    4.4588    0.0000 </r>
       <r>    7.7811    0.0000 </r>
       <r>    7.7811    0.0000 </r>
       <r>    8.0309    0.0000 </r>
       <r>    8.0336    0.0000 </r>
       <r>    8.6312    0.0000 </r>
       <r>    8.6312    0.0000 </r>
       <r>   11.5023    0.0000 </r>
       <r>   11.5023    0.0000 </r>
       <r>   11.9183    0.0000 </r>
       <r>   11.9192    0.0000 </r>
       <r>   11.9245    0.0000 </r>
      </set>
      <set comment="kpoint 7">
       <r>   -8.1203    1.0000 </r>
       <r>   -8.1203    1.0000 </r>
       <r>    0.9660    1.0000 </r>
       <r>    0.9660    1.0000 </r>
       <r>    2.5200    1.0000 </r>
       <r>    2.5200    1.0000 </r>
       <r>    2.7210    1.0000 </r>
       <r>    2.7278    1.0000 </r>
       <r>    4.3679    0.0000 </r>
       <r>    4.3679    0.0000 </r>
       <r>    7.2013    0.0000 </r>
       <r>    7.2013    0.0000 </r>
       <r>    7.4897    0.0000 </r>
       <r>    7.4897    0.0000 </r>
       <r>    7.6503    0.0000 </r>
       <r>    7.6508    0.0000 </r>
       <r>   11.7430    0.0000 </r>
       <r>   11.7430    0.0000 </r>
       <r>   11.8887    0.0000 </r>
       <r>   11.9263    0.0000 </r>
       <r>   11.9264    0.0000 </r>
      </set>
      <set comment="kpoint 8">
       <r>   -8.0587    1.0000 </r>
       <r>   -8.0587    1.0000 </r>
       <r>    0.9247    1.0000 </r>
       <r>    0.9247    1.0000 </r>
       <r>    2.1839    1.0000 </r>
       <r>    2.1839    1.0000 </r>
       <r>    2.3079    1.0000 </r>
       <r>    2.3079    1.0000 </r>
       <r>    5.0210    0.0000 </r>
       <r>    5.0210    0.0000 </r>
       <r>    6.3530    0.0000 </r>
       <r>    6.3530    0.0000 </r>
       <r>    7.9626    0.0000 </r>
       <r>    7.9626    0.0000 </r>
       <r>    8.1846    0.0000 </r>
       <r>    8.1846    0.0000 </r>
       <r>   10.6509    0.0000 </r>
       <r>   10.6509    0.0000 </r>
       <r>   12.2834    0.0000 </r>
       <r>   12.2834    0.0000 </r>
       <r>   13.0626    0.0000 </r>
      </set>
      <set comment="kpoint 9">
       <r>   -7.6646    1.0000 </r>
       <r>   -7.6622    1.0000 </r>
       <r>   -0.5672    1.0000 </r>
       <r>   -0.5666    1.0000 </r>
       <r>    1.6870    1.0000 </r>
       <r>    1.7137    1.0000 </r>
       <r>    1.8536    1.0000 </r>
       <r>    1.8565    1.0000 </r>
       <r>    5.4292    0.0000 </r>
       <r>    5.4420    0.0000 </r>
       <r>    6.5384    0.0000 </r>
       <r>    6.5962    0.0000 </r>
       <r>    8.4927    0.0000 </r>
       <r>    8.5232    0.0000 </r>
       <r>    8.7330    0.0000 </r>
       <r>    8.7487    0.0000 </r>
       <r>   10.6966    0.0000 </r>
       <r>   10.7027    0.0000 </r>
       <r>   12.9329    0.0000 </r>
       <r>   12.9705    0.0000 </r>
       <r>   13.0222    0.0000 </r>
      </set>
      <set comment="kpoint 10">
       <r>   -7.1045    1.0000 </r>
       <r>   -7.0968    1.0000 </r>
       <r>   -2.0339    1.0000 </r>
       <r>   -2.0212    1.0000 </r>
       <r>    1.1624    1.0000 </r>
       <r>    1.1889    1.0000 </r>
       <r>    1.6192    1.0000 </r>
       <r>    1.6221    1.0000 </r>
       <r>    5.2867    0.0000 </r>
       <r>    5.2868    0.0000 </r>
       <r>    7.3241    0.0000 </r>
       <r>    7.3455    0.0000 </r>
       <r>    8.6973    0.0000 </r>
       <r>    8.7050    0.0000 </r>
       <r>    9.0799    0.0000 </r>
       <r>    9.1435    0.0000 </r>
       <r>   11.8252    0.0000 </r>
       <r>   11.8824    0.0000 </r>
       <r>   13.1037    0.0000 </r>
       <r>   13.1108    0.0000 </r>
       <r>   13.9401    0.0000 </r>
      </set>
      <set comment="kpoint 11">
       <r>   -6.8760    1.0000 </r>
       <r>   -6.8645    1.0000 </r>
       <r>   -2.5080    1.0000 </r>
       <r>   -2.4877    1.0000 </r>
       <r>    0.8565    1.0000 </r>
       <r>    0.8756    1.0000 </r>
       <r>    1.7312    1.0000 </r>
       <r>    1.7366    1.0000 </r>
       <r>    5.2313    0.0000 </r>
       <r>    5.2368    0.0000 </r>
       <r>    7.5201    0.0000 </r>
       <r>    7.5479    0.0000 </r>
       <r>    8.4399    0.0000 </r>
       <r>    8.4423    0.0000 </r>
       <r>   10.0034    0.0000 </r>
       <r>   10.0585    0.0000 </r>
       <r>   12.1568    0.0000 </r>
       <r>   12.2939    0.0000 </r>
       <r>   13.0327    0.0000 </r>
       <r>   13.0617    0.0000 </r>
       <r>   13.2164    0.0000 </r>
      </set>
      <set comment="kpoint 12">
       <r>   -7.2938    1.0000 </r>
       <r>   -7.2870    1.0000 </r>
       <r>   -1.6038    1.0000 </r>
       <r>   -1.5907    1.0000 </r>
       <r>    0.9425    1.0000 </r>
       <r>    0.9600    1.0000 </r>
       <r>    2.1127    1.0000 </r>
       <r>    2.1212    1.0000 </r>
       <r>    5.3196    0.0000 </r>
       <r>    5.3374    0.0000 </r>
       <r>    7.7800    0.0000 </r>
       <r>    7.7981    0.0000 </r>
       <r>    8.1651    0.0000 </r>
       <r>    8.1712    0.0000 </r>
       <r>    8.7725    0.0000 </r>
       <r>    8.7896    0.0000 </r>
       <r>   11.3867    0.0000 </r>
       <r>   11.4174    0.0000 </r>
       <r>   12.4596    0.0000 </r>
       <r>   12.5271    0.0000 </r>
       <r>   13.8861    0.0000 </r>
      </set>
      <set comment="kpoint 13">
       <r>   -7.8319    1.0000 </r>
       <r>   -7.8297    1.0000 </r>
       <r>   -0.1145    1.0000 </r>
       <r>   -0.1128    1.0000 </r>
       <r>    1.5812    1.0000 </r>
       <r>    1.6050    1.0000 </r>
       <r>    2.5434    1.0000 </r>
       <r>    2.5541    1.0000 </r>
       <r>    5.1269    0.0000 </r>
       <r>    5.1474    0.0000 </r>
       <r>    7.1721    0.0000 </r>
       <r>    7.3273    0.0000 </r>
       <r>    7.6528    0.0000 </r>
       <r>    7.6973    0.0000 </r>
       <r>    8.2860    0.0000 </r>
       <r>    8.3726    0.0000 </r>
       <r>   11.0434    0.0000 </r>
       <r>   11.0768    0.0000 </r>
       <r>   12.0041    0.0000 </r>
       <r>   12.0086    0.0000 </r>
       <r>   12.9192    0.0000 </r>
      </set>
      <set comment="kpoint 14">
       <r>   -7.3860    1.0000 </r>
       <r>   -7.3860    1.0000 </r>
       <r>   -1.0042    1.0000 </r>
       <r>   -1.0042    1.0000 </r>
       <r>    1.2816    1.0000 </r>
       <r>    1.2816    1.0000 </r>
       <r>    1.3375    1.0000 </r>
       <r>    1.3375    1.0000 </r>
       <r>    5.3313    0.0000 </r>
       <r>    5.3313    0.0000 </r>
       <r>    5.8937    0.0000 </r>
       <r>    5.8937    0.0000 </r>
       <r>    9.7809    0.0000 </r>
       <r>    9.7809    0.0000 </r>
       <r>    9.9579    0.0000 </r>
       <r>    9.9579    0.0000 </r>
       <r>   10.1097    0.0000 </r>
       <r>   10.1097    0.0000 </r>
       <r>   13.7140    0.0000 </r>
       <r>   13.7140    0.0000 </r>
       <r>   14.8819    0.0000 </r>
      </set>
      <set comment="kpoint 15">
       <r>   -6.9110    1.0000 </r>
       <r>   -6.9025    1.0000 </r>
       <r>   -1.9624    1.0000 </r>
       <r>   -1.9490    1.0000 </r>
       <r>    0.6120    1.0000 </r>
       <r>    0.6379    1.0000 </r>
       <r>    1.0695    1.0000 </r>
       <r>    1.0717    1.0000 </r>
       <r>    5.3765    0.0000 </r>
       <r>    5.3887    0.0000 </r>
       <r>    6.2619    0.0000 </r>
       <r>    6.2725    0.0000 </r>
       <r>    9.4560    0.0000 </r>
       <r>    9.5295    0.0000 </r>
       <r>   10.3059    0.0000 </r>
       <r>   10.3248    0.0000 </r>
       <r>   11.9690    0.0000 </r>
       <r>   12.0021    0.0000 </r>
       <r>   14.4666    0.0000 </r>
       <r>   14.4809    0.0000 </r>
       <r>   14.9872    0.0000 </r>
      </set>
      <set comment="kpoint 16">
       <r>   -6.5950    1.0000 </r>
       <r>   -6.5751    1.0000 </r>
       <r>   -2.4840    1.0000 </r>
       <r>   -2.4468    1.0000 </r>
       <r>   -0.0876    1.0000 </r>
       <r>   -0.0708    1.0000 </r>
       <r>    1.1848    1.0000 </r>
       <r>    1.1885    1.0000 </r>
       <r>    5.4880    0.0000 </r>
       <r>    5.4969    0.0000 </r>
       <r>    7.6011    0.0000 </r>
       <r>    7.6766    0.0000 </r>
       <r>    9.4906    0.0000 </r>
       <r>    9.6652    0.0000 </r>
       <r>    9.8992    0.0000 </r>
       <r>    9.9235    0.0000 </r>
       <r>   11.3910    0.0000 </r>
       <r>   11.5240    0.0000 </r>
       <r>   13.2563    0.0000 </r>
       <r>   13.2925    0.0000 </r>
       <r>   15.1525    0.0000 </r>
      </set>
      <set comment="kpoint 17">
       <r>   -6.8183    1.0000 </r>
       <r>   -6.8012    1.0000 </r>
       <r>   -2.1678    1.0000 </r>
       <r>   -2.1308    1.0000 </r>
       <r>   -0.1056    1.0000 </r>
       <r>   -0.0952    1.0000 </r>
       <r>    1.6121    1.0000 </r>
       <r>    1.6182    1.0000 </r>
       <r>    5.7404    0.0000 </r>
       <r>    5.7702    0.0000 </r>
       <r>    8.0546    0.0000 </r>
       <r>    8.1665    0.0000 </r>
       <r>    8.9580    0.0000 </r>
       <r>    9.1056    0.0000 </r>
       <r>    9.1449    0.0000 </r>
       <r>    9.1789    0.0000 </r>
       <r>   11.7139    0.0000 </r>
       <r>   11.7177    0.0000 </r>
       <r>   11.7959    0.0000 </r>
       <r>   11.9239    0.0000 </r>
       <r>   15.3374    0.0000 </r>
      </set>
      <set comment="kpoint 18">
       <r>   -7.2938    1.0000 </r>
       <r>   -7.2870    1.0000 </r>
       <r>   -1.6038    1.0000 </r>
       <r>   -1.5907    1.0000 </r>
       <r>    0.9425    1.0000 </r>
       <r>    0.9600    1.0000 </r>
       <r>    2.1127    1.0000 </r>
       <r>    2.1212    1.0000 </r>
       <r>    5.3196    0.0000 </r>
       <r>    5.3374    0.0000 </r>
       <r>    7.7800    0.0000 </r>
       <r>    7.7981    0.0000 </r>
       <r>    8.1651    0.0000 </r>
       <r>    8.1712    0.0000 </r>
       <r>    8.7725    0.0000 </r>
       <r>    8.7896    0.0000 </r>
       <r>   11.3867    0.0000 </r>
       <r>   11.4174    0.0000 </r>
       <r>   12.4596    0.0000 </r>
       <r>   12.5271    0.0000 </r>
       <r>   13.8820    0.0000 </r>
      </set>
      <set comment="kpoint 19">
       <r>   -6.5937    1.0000 </r>
       <r>   -6.5937    1.0000 </r>
       <r>   -2.4527    1.0000 </r>
       <r>   -2.4527    1.0000 </r>
       <r>    0.7355    1.0000 </r>
       <r>    0.7355    1.0000 </r>
       <r>    0.7523    1.0000 </r>
       <r>    0.7523    1.0000 </r>
       <r>    4.8894    0.0000 </r>
       <r>    4.8894    0.0000 </r>
       <r>    5.3794    0.0000 </r>
       <r>    5.3794    0.0000 </r>
       <r>   11.5803    0.0000 </r>
       <r>   11.5803    0.0000 </r>
       <r>   11.7265    0.0000 </r>
       <r>   11.7265    0.0000 </r>
       <r>   11.8836    0.0000 </r>
       <r>   11.8836    0.0000 </r>
       <r>   14.6400    0.0000 </r>
       <r>   14.6400    0.0000 </r>
       <r>   15.6858    0.0000 </r>
      </set>
      <set comment="kpoint 20">
       <r>   -6.4377    1.0000 </r>
       <r>   -6.4225    1.0000 </r>
       <r>   -2.6545    1.0000 </r>
       <r>   -2.6297    1.0000 </r>
       <r>    0.1901    1.0000 </r>
       <r>    0.2109    1.0000 </r>
       <r>    0.7904    1.0000 </r>
       <r>    0.7925    1.0000 </r>
       <r>    5.1184    0.0000 </r>
       <r>    5.1336    0.0000 </r>
       <r>    6.0352    0.0000 </r>
       <r>    6.0485    0.0000 </r>
       <r>   11.1151    0.0000 </r>
       <r>   11.1279    0.0000 </r>
       <r>   11.4408    0.0000 </r>
       <r>   11.4890    0.0000 </r>
       <r>   11.7130    0.0000 </r>
       <r>   11.9444    0.0000 </r>
       <r>   14.1563    0.0000 </r>
       <r>   14.1909    0.0000 </r>
       <r>   15.2764    0.0000 </r>
      </set>
      <set comment="kpoint 21">
       <r>   -6.5950    1.0000 </r>
       <r>   -6.5751    1.0000 </r>
       <r>   -2.4840    1.0000 </r>
       <r>   -2.4468    1.0000 </r>
       <r>   -0.0876    1.0000 </r>
       <r>   -0.0708    1.0000 </r>
       <r>    1.1848    1.0000 </r>
       <r>    1.1885    1.0000 </r>
       <r>    5.4880    0.0000 </r>
       <r>    5.4969    0.0000 </r>
       <r>    7.6011    0.0000 </r>
       <r>    7.6766    0.0000 </r>
       <r>    9.4906    0.0000 </r>
       <r>    9.6652    0.0000 </r>
       <r>    9.8992    0.0000 </r>
       <r>    9.9235    0.0000 </r>
       <r>   11.3910    0.0000 </r>
       <r>   11.5240    0.0000 </r>
       <r>   13.2563    0.0000 </r>
       <r>   13.2925    0.0000 </r>
       <r>   15.1508    0.0000 </r>
      </set>
      <set comment="kpoint 22">
       <r>   -6.8760    1.0000 </r>
       <r>   -6.8645    1.0000 </r>
       <r>   -2.5080    1.0000 </r>
       <r>   -2.4877    1.0000 </r>
       <r>    0.8565    1.0000 </r>
       <r>    0.8756    1.0000 </r>
       <r>    1.7312    1.0000 </r>
       <r>    1.7366    1.0000 </r>
       <r>    5.2313    0.0000 </r>
       <r>    5.2368    0.0000 </r>
       <r>    7.5201    0.0000 </r>
       <r>    7.5479    0.0000 </r>
       <r>    8.4399    0.0000 </r>
       <r>    8.4423    0.0000 </r>
       <r>   10.0034    0.0000 </r>
       <r>   10.0585    0.0000 </r>
       <r>   12.1568    0.0000 </r>
       <r>   12.2939    0.0000 </r>
       <r>   13.0375    0.0000 </r>
       <r>   13.0623    0.0000 </r>
       <r>   13.2134    0.0000 </r>
      </set>
      <set comment="kpoint 23">
       <r>   -6.9110    1.0000 </r>
       <r>   -6.9025    1.0000 </r>
       <r>   -1.9624    1.0000 </r>
       <r>   -1.9490    1.0000 </r>
       <r>    0.6120    1.0000 </r>
       <r>    0.6379    1.0000 </r>
       <r>    1.0695    1.0000 </r>
       <r>    1.0717    1.0000 </r>
       <r>    5.3765    0.0000 </r>
       <r>    5.3887    0.0000 </r>
       <r>    6.2619    0.0000 </r>
       <r>    6.2725    0.0000 </r>
       <r>    9.4560    0.0000 </r>
       <r>    9.5295    0.0000 </r>
       <r>   10.3059    0.0000 </r>
       <r>   10.3248    0.0000 </r>
       <r>   11.9690    0.0000 </r>
       <r>   12.0021    0.0000 </r>
       <r>   14.4666    0.0000 </r>
       <r>   14.4809    0.0000 </r>
       <r>   14.9865    0.0000 </r>
      </set>
      <set comment="kpoint 24">
       <r>   -7.1045    1.0000 </r>
       <r>   -7.0968    1.0000 </r>
       <r>   -2.0339    1.0000 </r>
       <r>   -2.0212    1.0000 </r>
       <r>    1.1624    1.0000 </r>
       <r>    1.1889    1.0000 </r>
       <r>    1.6192    1.0000 </r>
       <r>    1.6221    1.0000 </r>
       <r>    5.2867    0.0000 </r>
       <r>    5.2868    0.0000 </r>
       <r>    7.3241    0.0000 </r>
       <r>    7.3455    0.0000 </r>
       <r>    8.6973    0.0000 </r>
       <r>    8.7050    0.0000 </r>
       <r>    9.0799    0.0000 </r>
       <r>    9.1435    0.0000 </r>
       <r>   11.8252    0.0000 </r>
       <r>   11.8824    0.0000 </r>
       <r>   13.1037    0.0000 </r>
       <r>   13.1108    0.0000 </r>
       <r>   13.9423    0.0000 </r>
      </set>
      <set comment="kpoint 25">
       <r>   -7.6646    1.0000 </r>
       <r>   -7.6622    1.0000 </r>
       <r>   -0.5672    1.0000 </r>
       <r>   -0.5666    1.0000 </r>
       <r>    1.6870    1.0000 </r>
       <r>    1.7137    1.0000 </r>
       <r>    1.8536    1.0000 </r>
       <r>    1.8565    1.0000 </r>
       <r>    5.4292    0.0000 </r>
       <r>    5.4420    0.0000 </r>
       <r>    6.5384    0.0000 </r>
       <r>    6.5962    0.0000 </r>
       <r>    8.4927    0.0000 </r>
       <r>    8.5232    0.0000 </r>
       <r>    8.7330    0.0000 </r>
       <r>    8.7487    0.0000 </r>
       <r>   10.6966    0.0000 </r>
       <r>   10.7027    0.0000 </r>
       <r>   12.9341    0.0000 </r>
       <r>   12.9731    0.0000 </r>
       <r>   13.0263    0.0000 </r>
      </set>
      <set comment="kpoint 26">
       <r>   -7.2211    1.0000 </r>
       <r>   -7.2133    1.0000 </r>
       <r>   -1.4696    1.0000 </r>
       <r>   -1.4557    1.0000 </r>
       <r>    0.6709    1.0000 </r>
       <r>    0.6877    1.0000 </r>
       <r>    1.5800    1.0000 </r>
       <r>    1.6085    1.0000 </r>
       <r>    6.0667    0.0000 </r>
       <r>    6.1462    0.0000 </r>
       <r>    6.5234    0.0000 </r>
       <r>    6.6405    0.0000 </r>
       <r>    8.1963    0.0000 </r>
       <r>    8.3100    0.0000 </r>
       <r>    9.5975    0.0000 </r>
       <r>    9.7351    0.0000 </r>
       <r>   11.1618    0.0000 </r>
       <r>   11.2063    0.0000 </r>
       <r>   13.7456    0.0000 </r>
       <r>   13.8343    0.0000 </r>
       <r>   14.4150    0.0000 </r>
      </set>
      <set comment="kpoint 27">
       <r>   -6.7500    1.0000 </r>
       <r>   -6.7330    1.0000 </r>
       <r>   -2.3235    1.0000 </r>
       <r>   -2.2911    1.0000 </r>
       <r>    0.1632    1.0000 </r>
       <r>    0.1794    1.0000 </r>
       <r>    1.2005    1.0000 </r>
       <r>    1.2314    1.0000 </r>
       <r>    6.1636    0.0000 </r>
       <r>    6.1961    0.0000 </r>
       <r>    7.2313    0.0000 </r>
       <r>    7.2991    0.0000 </r>
       <r>    8.4525    0.0000 </r>
       <r>    8.5771    0.0000 </r>
       <r>   10.1377    0.0000 </r>
       <r>   10.2992    0.0000 </r>
       <r>   11.3567    0.0000 </r>
       <r>   11.4864    0.0000 </r>
       <r>   13.3702    0.0000 </r>
       <r>   13.4837    0.0000 </r>
       <r>   14.5549    0.0000 </r>
      </set>
      <set comment="kpoint 28">
       <r>   -6.7500    1.0000 </r>
       <r>   -6.7330    1.0000 </r>
       <r>   -2.3235    1.0000 </r>
       <r>   -2.2911    1.0000 </r>
       <r>    0.1632    1.0000 </r>
       <r>    0.1794    1.0000 </r>
       <r>    1.2005    1.0000 </r>
       <r>    1.2314    1.0000 </r>
       <r>    6.1636    0.0000 </r>
       <r>    6.1961    0.0000 </r>
       <r>    7.2313    0.0000 </r>
       <r>    7.2991    0.0000 </r>
       <r>    8.4525    0.0000 </r>
       <r>    8.5771    0.0000 </r>
       <r>   10.1377    0.0000 </r>
       <r>   10.2992    0.0000 </r>
       <r>   11.3567    0.0000 </r>
       <r>   11.4864    0.0000 </r>
       <r>   13.3702    0.0000 </r>
       <r>   13.4837    0.0000 </r>
       <r>   14.5362    0.0000 </r>
      </set>
      <set comment="kpoint 29">
       <r>   -6.5490    1.0000 </r>
       <r>   -6.5313    1.0000 </r>
       <r>   -2.4592    1.0000 </r>
       <r>   -2.4287    1.0000 </r>
       <r>    0.2472    1.0000 </r>
       <r>    0.2593    1.0000 </r>
       <r>    0.5682    1.0000 </r>
       <r>    0.6046    1.0000 </r>
       <r>    5.9908    0.0000 </r>
       <r>    6.0517    0.0000 </r>
       <r>    6.2645    0.0000 </r>
       <r>    6.3270    0.0000 </r>
       <r>    9.2625    0.0000 </r>
       <r>    9.4013    0.0000 </r>
       <r>   11.0860    0.0000 </r>
       <r>   11.2002    0.0000 </r>
       <r>   11.9674    0.0000 </r>
       <r>   12.1118    0.0000 </r>
       <r>   14.2251    0.0000 </r>
       <r>   14.2771    0.0000 </r>
       <r>   15.3493    0.0000 </r>
      </set>
      <set comment="kpoint 30">
       <r>   -6.4683    1.0000 </r>
       <r>   -6.4437    1.0000 </r>
       <r>   -2.5296    1.0000 </r>
       <r>   -2.4836    1.0000 </r>
       <r>   -0.1812    1.0000 </r>
       <r>   -0.1685    1.0000 </r>
       <r>    0.6425    1.0000 </r>
       <r>    0.6756    1.0000 </r>
       <r>    6.3507    0.0000 </r>
       <r>    6.3673    0.0000 </r>
       <r>    7.6039    0.0000 </r>
       <r>    7.6896    0.0000 </r>
       <r>    8.6544    0.0000 </r>
       <r>    8.8196    0.0000 </r>
       <r>    9.8010    0.0000 </r>
       <r>    9.8835    0.0000 </r>
       <r>   11.8212    0.0000 </r>
       <r>   11.9686    0.0000 </r>
       <r>   13.6579    0.0000 </r>
       <r>   13.7033    0.0000 </r>
       <r>   15.4912    0.0000 </r>
      </set>
     </set>
    </set>
   </array>
  </eigenvalues>
  <separator name="orbital magnetization" >
   <v name="MAGDIPOLOUT">      0.00000000      0.00000000      0.00000000</v>
  </separator>
  <dos>
   <i name="efermi">      2.98207699 </i>
   <total>
    <array>
     <dimension dim="1">gridpoints</dimension>
     <dimension dim="2">spin</dimension>
     <field>energy</field>
     <field>total</field>
     <field>integrated</field>
     <set>
      <set comment="spin 1">
       <r>    -9.5019     0.0000     0.0000 </r>
       <r>    -9.4139     0.0000     0.0000 </r>
       <r>    -9.3260     0.0000     0.0000 </r>
       <r>    -9.2380     0.0000     0.0000 </r>
       <r>    -9.1501     0.0000     0.0000 </r>
       <r>    -9.0621     0.0000     0.0000 </r>
       <r>    -8.9741     0.0000     0.0000 </r>
       <r>    -8.8862     0.0000     0.0000 </r>
       <r>    -8.7982     0.0000     0.0000 </r>
       <r>    -8.7103    -0.0000    -0.0000 </r>
       <r>    -8.6223    -0.0000    -0.0000 </r>
       <r>    -8.5344    -0.0000    -0.0000 </r>
       <r>    -8.4464    -0.0000    -0.0000 </r>
       <r>    -8.3584    -0.0022    -0.0002 </r>
       <r>    -8.2705     0.0643     0.0055 </r>
       <r>    -8.1825    -0.0149     0.0041 </r>
       <r>    -8.0946     0.4983     0.0480 </r>
       <r>    -8.0066     0.4621     0.0886 </r>
       <r>    -7.9187    -0.0259     0.0863 </r>
       <r>    -7.8307     0.4123     0.1226 </r>
       <r>    -7.7427     0.3698     0.1551 </r>
       <r>    -7.6548     1.0986     0.2518 </r>
       <r>    -7.5668     1.0835     0.3471 </r>
       <r>    -7.4789    -0.0394     0.3436 </r>
       <r>    -7.3909     0.1586     0.3575 </r>
       <r>    -7.3030     0.6950     0.4187 </r>
       <r>    -7.2150     2.0324     0.5974 </r>
       <r>    -7.1270     0.8982     0.6764 </r>
       <r>    -7.0391     1.9700     0.8497 </r>
       <r>    -6.9511    -0.0933     0.8415 </r>
       <r>    -6.8632     2.5959     1.0698 </r>
       <r>    -6.7752     1.6027     1.2108 </r>
       <r>    -6.6873     3.0680     1.4807 </r>
       <r>    -6.5993     0.5041     1.5250 </r>
       <r>    -6.5113     2.8490     1.7756 </r>
       <r>    -6.4234     2.1060     1.9608 </r>
       <r>    -6.3354     0.4588     2.0012 </r>
       <r>    -6.2475    -0.0134     2.0000 </r>
       <r>    -6.1595    -0.0000     2.0000 </r>
       <r>    -6.0716    -0.0000     2.0000 </r>
       <r>    -5.9836     0.0000     2.0000 </r>
       <r>    -5.8956     0.0000     2.0000 </r>
       <r>    -5.8077     0.0000     2.0000 </r>
       <r>    -5.7197     0.0000     2.0000 </r>
       <r>    -5.6318     0.0000     2.0000 </r>
       <r>    -5.5438     0.0000     2.0000 </r>
       <r>    -5.4559     0.0000     2.0000 </r>
       <r>    -5.3679     0.0000     2.0000 </r>
       <r>    -5.2799     0.0000     2.0000 </r>
       <r>    -5.1920     0.0000     2.0000 </r>
       <r>    -5.1040     0.0000     2.0000 </r>
       <r>    -5.0161     0.0000     2.0000 </r>
       <r>    -4.9281     0.0000     2.0000 </r>
       <r>    -4.8402     0.0000     2.0000 </r>
       <r>    -4.7522     0.0000     2.0000 </r>
       <r>    -4.6642     0.0000     2.0000 </r>
       <r>    -4.5763     0.0000     2.0000 </r>
       <r>    -4.4883     0.0000     2.0000 </r>
       <r>    -4.4004     0.0000     2.0000 </r>
       <r>    -4.3124     0.0000     2.0000 </r>
       <r>    -4.2245     0.0000     2.0000 </r>
       <r>    -4.1365     0.0000     2.0000 </r>
       <r>    -4.0485     0.0000     2.0000 </r>
       <r>    -3.9606     0.0000     2.0000 </r>
       <r>    -3.8726     0.0000     2.0000 </r>
       <r>    -3.7847     0.0000     2.0000 </r>
       <r>    -3.6967     0.0000     2.0000 </r>
       <r>    -3.6088     0.0000     2.0000 </r>
       <r>    -3.5208     0.0000     2.0000 </r>
       <r>    -3.4328     0.0000     2.0000 </r>
       <r>    -3.3449     0.0000     2.0000 </r>
       <r>    -3.2569     0.0000     2.0000 </r>
       <r>    -3.1690     0.0000     2.0000 </r>
       <r>    -3.0810    -0.0000     2.0000 </r>
       <r>    -2.9931    -0.0000     2.0000 </r>
       <r>    -2.9051    -0.0000     2.0000 </r>
       <r>    -2.8171    -0.0000     2.0000 </r>
       <r>    -2.7292    -0.0144     1.9987 </r>
       <r>    -2.6412     0.4194     2.0356 </r>
       <r>    -2.5533     0.4131     2.0720 </r>
       <r>    -2.4653     4.1292     2.4352 </r>
       <r>    -2.3774     3.0267     2.7014 </r>
       <r>    -2.2894     2.4757     2.9191 </r>
       <r>    -2.2014     0.8531     2.9942 </r>
       <r>    -2.1135     0.6564     3.0519 </r>
       <r>    -2.0255     0.9073     3.1317 </r>
       <r>    -1.9376     2.0514     3.3121 </r>
       <r>    -1.8496     0.3386     3.3419 </r>
       <r>    -1.7617    -0.0092     3.3411 </r>
       <r>    -1.6737    -0.0415     3.3375 </r>
       <r>    -1.5857     1.1272     3.4366 </r>
       <r>    -1.4978     0.5965     3.4891 </r>
       <r>    -1.4098     1.5394     3.6245 </r>
       <r>    -1.3219    -0.0391     3.6210 </r>
       <r>    -1.2339    -0.0005     3.6210 </r>
       <r>    -1.1460    -0.0011     3.6209 </r>
       <r>    -1.0580     0.0241     3.6230 </r>
       <r>    -0.9700     0.9047     3.7026 </r>
       <r>    -0.8821     0.0010     3.7027 </r>
       <r>    -0.7941    -0.0007     3.7026 </r>
       <r>    -0.7062    -0.0005     3.7026 </r>
       <r>    -0.6182    -0.0436     3.6988 </r>
       <r>    -0.5303     1.5884     3.8385 </r>
       <r>    -0.4423     0.0486     3.8427 </r>
       <r>    -0.3543    -0.0019     3.8426 </r>
       <r>    -0.2664    -0.0220     3.8406 </r>
       <r>    -0.1784     0.6624     3.8989 </r>
       <r>    -0.0905     2.6963     4.1360 </r>
       <r>    -0.0025     1.4878     4.2669 </r>
       <r>     0.0854    -0.1125     4.2570 </r>
       <r>     0.1734     1.8242     4.4175 </r>
       <r>     0.2614     3.2908     4.7069 </r>
       <r>     0.3493     0.5319     4.7537 </r>
       <r>     0.4373    -0.0177     4.7521 </r>
       <r>     0.5252    -0.0394     4.7487 </r>
       <r>     0.6132     1.8648     4.9127 </r>
       <r>     0.7011     4.2266     5.2845 </r>
       <r>     0.7891     1.4447     5.4115 </r>
       <r>     0.8771     1.4824     5.5419 </r>
       <r>     0.9650     2.3593     5.7494 </r>
       <r>     1.0530     1.0967     5.8459 </r>
       <r>     1.1409     1.2923     5.9595 </r>
       <r>     1.2289     5.2850     6.4244 </r>
       <r>     1.3168     1.4981     6.5562 </r>
       <r>     1.4048     0.3199     6.5843 </r>
       <r>     1.4928    -0.0393     6.5809 </r>
       <r>     1.5807     0.8119     6.6523 </r>
       <r>     1.6687     4.2080     7.0224 </r>
       <r>     1.7566     2.7191     7.2616 </r>
       <r>     1.8446     0.9883     7.3485 </r>
       <r>     1.9325     1.4256     7.4739 </r>
       <r>     2.0205    -0.0858     7.4663 </r>
       <r>     2.1085     1.3284     7.5832 </r>
       <r>     2.1964     1.6861     7.7315 </r>
       <r>     2.2844     0.1256     7.7425 </r>
       <r>     2.3723     0.8862     7.8205 </r>
       <r>     2.4603    -0.0451     7.8165 </r>
       <r>     2.5482     0.9008     7.8957 </r>
       <r>     2.6362     0.4895     7.9388 </r>
       <r>     2.7242     0.2971     7.9649 </r>
       <r>     2.8121     0.2747     7.9891 </r>
       <r>     2.9001    -0.0072     7.9885 </r>
       <r>     2.9880     0.1339     8.0002 </r>
       <r>     3.0760    -0.0027     8.0000 </r>
       <r>     3.1639     0.0018     8.0002 </r>
       <r>     3.2519     0.0663     8.0060 </r>
       <r>     3.3398    -0.0018     8.0058 </r>
       <r>     3.4278    -0.0000     8.0058 </r>
       <r>     3.5158    -0.0000     8.0058 </r>
       <r>     3.6037     0.0000     8.0058 </r>
       <r>     3.6917     0.0000     8.0058 </r>
       <r>     3.7796     0.0000     8.0058 </r>
       <r>     3.8676    -0.0000     8.0058 </r>
       <r>     3.9555    -0.0000     8.0058 </r>
       <r>     4.0435    -0.0000     8.0058 </r>
       <r>     4.1315    -0.0001     8.0058 </r>
       <r>     4.2194    -0.0184     8.0042 </r>
       <r>     4.3074     0.4878     8.0471 </r>
       <r>     4.3953     0.5184     8.0927 </r>
       <r>     4.4833     0.5328     8.1396 </r>
       <r>     4.5712     0.0723     8.1459 </r>
       <r>     4.6592    -0.0018     8.1458 </r>
       <r>     4.7472    -0.0001     8.1458 </r>
       <r>     4.8351    -0.0126     8.1447 </r>
       <r>     4.9231     0.3871     8.1787 </r>
       <r>     5.0110     0.1536     8.1922 </r>
       <r>     5.0990     0.4033     8.2277 </r>
       <r>     5.1869     1.4491     8.3552 </r>
       <r>     5.2749     2.0127     8.5322 </r>
       <r>     5.3629     3.4505     8.8357 </r>
       <r>     5.4508     2.9533     9.0955 </r>
       <r>     5.5388     1.9628     9.2681 </r>
       <r>     5.6267    -0.0322     9.2653 </r>
       <r>     5.7147     0.0356     9.2684 </r>
       <r>     5.8026     0.7453     9.3340 </r>
       <r>     5.8906     0.1871     9.3504 </r>
       <r>     5.9786     0.4094     9.3864 </r>
       <r>     6.0665     2.2633     9.5855 </r>
       <r>     6.1545     1.8124     9.7449 </r>
       <r>     6.2424     3.2993    10.0351 </r>
       <r>     6.3304     2.7445    10.2765 </r>
       <r>     6.4183     2.0939    10.4607 </r>
       <r>     6.5063     0.1526    10.4741 </r>
       <r>     6.5943     1.7824    10.6309 </r>
       <r>     6.6822     1.1932    10.7358 </r>
       <r>     6.7702    -0.0129    10.7347 </r>
       <r>     6.8581     0.0201    10.7365 </r>
       <r>     6.9461     0.0478    10.7407 </r>
       <r>     7.0340    -0.0019    10.7405 </r>
       <r>     7.1220    -0.0291    10.7379 </r>
       <r>     7.2100     1.0069    10.8265 </r>
       <r>     7.2979     2.4842    11.0450 </r>
       <r>     7.3859     2.8333    11.2942 </r>
       <r>     7.4738     0.0312    11.2970 </r>
       <r>     7.5618     1.8166    11.4568 </r>
       <r>     7.6497     2.3602    11.6643 </r>
       <r>     7.7377     2.3796    11.8736 </r>
       <r>     7.8257     2.2142    12.0684 </r>
       <r>     7.9136     0.4188    12.1052 </r>
       <r>     8.0016     0.5115    12.1502 </r>
       <r>     8.0895     1.3041    12.2649 </r>
       <r>     8.1775     1.6623    12.4112 </r>
       <r>     8.2654     1.6732    12.5583 </r>
       <r>     8.3534     1.1349    12.6581 </r>
       <r>     8.4414     1.6213    12.8007 </r>
       <r>     8.5293     3.1824    13.0807 </r>
       <r>     8.6173     2.0287    13.2591 </r>
       <r>     8.7052     2.1706    13.4500 </r>
       <r>     8.7932     3.4553    13.7539 </r>
       <r>     8.8811     1.1727    13.8571 </r>
       <r>     8.9691     0.2358    13.8778 </r>
       <r>     9.0571     0.2258    13.8977 </r>
       <r>     9.1450     1.7544    14.0520 </r>
       <r>     9.2330     1.0315    14.1427 </r>
       <r>     9.3209     0.7070    14.2049 </r>
       <r>     9.4089     0.4561    14.2450 </r>
       <r>     9.4968     1.6500    14.3902 </r>
       <r>     9.5848     1.3174    14.5060 </r>
       <r>     9.6728     1.0342    14.5970 </r>
       <r>     9.7607     1.0910    14.6930 </r>
       <r>     9.8487     1.7606    14.8478 </r>
       <r>     9.9366     2.1788    15.0395 </r>
       <r>    10.0246     1.2821    15.1522 </r>
       <r>    10.1125     1.3390    15.2700 </r>
       <r>    10.2005     1.5801    15.4090 </r>
       <r>    10.2885     0.6755    15.4684 </r>
       <r>    10.3764     2.5521    15.6929 </r>
       <r>    10.4644    -0.0878    15.6852 </r>
       <r>    10.5523    -0.0040    15.6848 </r>
       <r>    10.6403     0.0779    15.6917 </r>
       <r>    10.7282     1.7710    15.8474 </r>
       <r>    10.8162     0.2064    15.8656 </r>
       <r>    10.9042     0.0035    15.8659 </r>
       <r>    10.9921    -0.0285    15.8634 </r>
       <r>    11.0801     0.9420    15.9462 </r>
       <r>    11.1680     2.0487    16.1264 </r>
       <r>    11.2560     1.8534    16.2895 </r>
       <r>    11.3439     0.3788    16.3228 </r>
       <r>    11.4319     3.4422    16.6255 </r>
       <r>    11.5199     3.1461    16.9023 </r>
       <r>    11.6078     1.0519    16.9948 </r>
       <r>    11.6958     0.2722    17.0187 </r>
       <r>    11.7837     2.3707    17.2272 </r>
       <r>    11.8717     2.4318    17.4411 </r>
       <r>    11.9596     3.8899    17.7833 </r>
       <r>    12.0476     3.2963    18.0732 </r>
       <r>    12.1356     0.7840    18.1422 </r>
       <r>    12.2235     0.7608    18.2091 </r>
       <r>    12.3115     0.9866    18.2959 </r>
       <r>    12.3994     0.1926    18.3128 </r>
       <r>    12.4874     0.7476    18.3786 </r>
       <r>    12.5753     0.8857    18.4565 </r>
       <r>    12.6633    -0.0185    18.4548 </r>
       <r>    12.7513    -0.0019    18.4547 </r>
       <r>    12.8392     0.0322    18.4575 </r>
       <r>    12.9272     0.6151    18.5116 </r>
       <r>    13.0151     1.8589    18.6751 </r>
       <r>    13.1031     2.8922    18.9295 </r>
       <r>    13.1910     0.9648    19.0144 </r>
       <r>    13.2790     1.9839    19.1889 </r>
       <r>    13.3670     1.7436    19.3422 </r>
       <r>    13.4549     1.1255    19.4412 </r>
       <r>    13.5429     1.4678    19.5703 </r>
       <r>    13.6308    -0.0014    19.5702 </r>
       <r>    13.7188     1.6836    19.7183 </r>
       <r>    13.8067     1.1482    19.8193 </r>
       <r>    13.8947     1.2485    19.9291 </r>
       <r>    13.9827     1.0427    20.0208 </r>
       <r>    14.0706    -0.0119    20.0198 </r>
       <r>    14.1586     0.2165    20.0388 </r>
       <r>    14.2465     1.3237    20.1552 </r>
       <r>    14.3345     0.8659    20.2314 </r>
       <r>    14.4224     0.4475    20.2708 </r>
       <r>    14.5104     1.9614    20.4433 </r>
       <r>    14.5984     1.5921    20.5833 </r>
       <r>    14.6863     0.3688    20.6158 </r>
       <r>    14.7743    -0.0076    20.6151 </r>
       <r>    14.8622     0.0384    20.6185 </r>
       <r>    14.9502     0.1908    20.6353 </r>
       <r>    15.0381     0.7854    20.7043 </r>
       <r>    15.1261     0.0796    20.7113 </r>
       <r>    15.2141     0.7096    20.7738 </r>
       <r>    15.3020     0.3358    20.8033 </r>
       <r>    15.3900     1.2441    20.9127 </r>
       <r>    15.4779     0.2250    20.9325 </r>
       <r>    15.5659     0.5903    20.9844 </r>
       <r>    15.6538    -0.0093    20.9836 </r>
       <r>    15.7418     0.1930    21.0006 </r>
       <r>    15.8297    -0.0066    21.0000 </r>
       <r>    15.9177    -0.0000    21.0000 </r>
       <r>    16.0057    -0.0000    21.0000 </r>
       <r>    16.0936     0.0000    21.0000 </r>
       <r>    16.1816     0.0000    21.0000 </r>
       <r>    16.2695     0.0000    21.0000 </r>
       <r>    16.3575     0.0000    21.0000 </r>
       <r>    16.4454     0.0000    21.0000 </r>
       <r>    16.5334     0.0000    21.0000 </r>
       <r>    16.6214     0.0000    21.0000 </r>
       <r>    16.7093     0.0000    21.0000 </r>
       <r>    16.7973     0.0000    21.0000 </r>
       <r>    16.8852     0.0000    21.0000 </r>
      </set>
      <set comment="spin 2">
       <r>    -9.5019     0.0000     0.0000 </r>
       <r>    -9.4139     0.0000     0.0000 </r>
       <r>    -9.3260     0.0000     0.0000 </r>
       <r>    -9.2380     0.0000     0.0000 </r>
       <r>    -9.1501     0.0000     0.0000 </r>
       <r>    -9.0621     0.0000     0.0000 </r>
       <r>    -8.9741     0.0000     0.0000 </r>
       <r>    -8.8862     0.0000     0.0000 </r>
       <r>    -8.7982     0.0000     0.0000 </r>
       <r>    -8.7103     0.0000     0.0000 </r>
       <r>    -8.6223     0.0000     0.0000 </r>
       <r>    -8.5344     0.0000     0.0000 </r>
       <r>    -8.4464     0.0000     0.0000 </r>
       <r>    -8.3584     0.0000     0.0000 </r>
       <r>    -8.2705     0.0000     0.0000 </r>
       <r>    -8.1825     0.0000     0.0000 </r>
       <r>    -8.0946     0.0000     0.0000 </r>
       <r>    -8.0066     0.0000     0.0000 </r>
       <r>    -7.9187     0.0000     0.0000 </r>
       <r>    -7.8307     0.0000     0.0000 </r>
       <r>    -7.7427     0.0000     0.0000 </r>
       <r>    -7.6548     0.0000     0.0000 </r>
       <r>    -7.5668     0.0000     0.0000 </r>
       <r>    -7.4789     0.0000     0.0000 </r>
       <r>    -7.3909     0.0000     0.0000 </r>
       <r>    -7.3030     0.0000     0.0000 </r>
       <r>    -7.2150     0.0000     0.0000 </r>
       <r>    -7.1270     0.0000     0.0000 </r>
       <r>    -7.0391     0.0000     0.0000 </r>
       <r>    -6.9511     0.0000     0.0000 </r>
       <r>    -6.8632     0.0000     0.0000 </r>
       <r>    -6.7752     0.0000     0.0000 </r>
       <r>    -6.6873     0.0000     0.0000 </r>
       <r>    -6.5993     0.0000     0.0000 </r>
       <r>    -6.5113     0.0000     0.0000 </r>
       <r>    -6.4234     0.0000     0.0000 </r>
       <r>    -6.3354     0.0000     0.0000 </r>
       <r>    -6.2475     0.0000     0.0000 </r>
       <r>    -6.1595     0.0000     0.0000 </r>
       <r>    -6.0716     0.0000     0.0000 </r>
       <r>    -5.9836     0.0000     0.0000 </r>
       <r>    -5.8956     0.0000     0.0000 </r>
       <r>    -5.8077     0.0000     0.0000 </r>
       <r>    -5.7197     0.0000     0.0000 </r>
       <r>    -5.6318     0.0000     0.0000 </r>
       <r>    -5.5438     0.0000     0.0000 </r>
       <r>    -5.4559     0.0000     0.0000 </r>
       <r>    -5.3679     0.0000     0.0000 </r>
       <r>    -5.2799     0.0000     0.0000 </r>
       <r>    -5.1920     0.0000     0.0000 </r>
       <r>    -5.1040     0.0000     0.0000 </r>
       <r>    -5.0161     0.0000     0.0000 </r>
       <r>    -4.9281     0.0000     0.0000 </r>
       <r>    -4.8402     0.0000     0.0000 </r>
       <r>    -4.7522     0.0000     0.0000 </r>
       <r>    -4.6642     0.0000     0.0000 </r>
       <r>    -4.5763     0.0000     0.0000 </r>
       <r>    -4.4883     0.0000     0.0000 </r>
       <r>    -4.4004     0.0000     0.0000 </r>
       <r>    -4.3124     0.0000     0.0000 </r>
       <r>    -4.2245     0.0000     0.0000 </r>
       <r>    -4.1365     0.0000     0.0000 </r>
       <r>    -4.0485     0.0000     0.0000 </r>
       <r>    -3.9606     0.0000     0.0000 </r>
       <r>    -3.8726     0.0000     0.0000 </r>
       <r>    -3.7847     0.0000     0.0000 </r>
       <r>    -3.6967     0.0000     0.0000 </r>
       <r>    -3.6088     0.0000     0.0000 </r>
       <r>    -3.5208     0.0000     0.0000 </r>
       <r>    -3.4328     0.0000     0.0000 </r>
       <r>    -3.3449     0.0000     0.0000 </r>
       <r>    -3.2569     0.0000     0.0000 </r>
       <r>    -3.1690     0.0000     0.0000 </r>
       <r>    -3.0810     0.0000     0.0000 </r>
       <r>    -2.9931     0.0000     0.0000 </r>
       <r>    -2.9051     0.0000     0.0000 </r>
       <r>    -2.8171     0.0000     0.0000 </r>
       <r>    -2.7292     0.0000     0.0000 </r>
       <r>    -2.6412     0.0000     0.0000 </r>
       <r>    -2.5533     0.0000     0.0000 </r>
       <r>    -2.4653     0.0000     0.0000 </r>
       <r>    -2.3774     0.0000     0.0000 </r>
       <r>    -2.2894     0.0000     0.0000 </r>
       <r>    -2.2014     0.0000     0.0000 </r>
       <r>    -2.1135     0.0000     0.0000 </r>
       <r>    -2.0255     0.0000     0.0000 </r>
       <r>    -1.9376     0.0000     0.0000 </r>
       <r>    -1.8496     0.0000     0.0000 </r>
       <r>    -1.7617     0.0000     0.0000 </r>
       <r>    -1.6737     0.0000     0.0000 </r>
       <r>    -1.5857     0.0000     0.0000 </r>
       <r>    -1.4978     0.0000     0.0000 </r>
       <r>    -1.4098     0.0000     0.0000 </r>
       <r>    -1.3219     0.0000     0.0000 </r>
       <r>    -1.2339     0.0000     0.0000 </r>
       <r>    -1.1460     0.0000     0.0000 </r>
       <r>    -1.0580     0.0000     0.0000 </r>
       <r>    -0.9700     0.0000     0.0000 </r>
       <r>    -0.8821     0.0000     0.0000 </r>
       <r>    -0.7941     0.0000     0.0000 </r>
       <r>    -0.7062     0.0000     0.0000 </r>
       <r>    -0.6182     0.0000     0.0000 </r>
       <r>    -0.5303     0.0000     0.0000 </r>
       <r>    -0.4423     0.0000     0.0000 </r>
       <r>    -0.3543     0.0000     0.0000 </r>
       <r>    -0.2664     0.0000     0.0000 </r>
       <r>    -0.1784     0.0000     0.0000 </r>
       <r>    -0.0905     0.0000     0.0000 </r>
       <r>    -0.0025     0.0000     0.0000 </r>
       <r>     0.0854     0.0000     0.0000 </r>
       <r>     0.1734     0.0000     0.0000 </r>
       <r>     0.2614     0.0000     0.0000 </r>
       <r>     0.3493     0.0000     0.0000 </r>
       <r>     0.4373     0.0000     0.0000 </r>
       <r>     0.5252     0.0000     0.0000 </r>
       <r>     0.6132     0.0000     0.0000 </r>
       <r>     0.7011     0.0000     0.0000 </r>
       <r>     0.7891     0.0000     0.0000 </r>
       <r>     0.8771     0.0000     0.0000 </r>
       <r>     0.9650     0.0000     0.0000 </r>
       <r>     1.0530     0.0000     0.0000 </r>
       <r>     1.1409     0.0000     0.0000 </r>
       <r>     1.2289     0.0000     0.0000 </r>
       <r>     1.3168     0.0000     0.0000 </r>
       <r>     1.4048     0.0000     0.0000 </r>
       <r>     1.4928     0.0000     0.0000 </r>
       <r>     1.5807     0.0000     0.0000 </r>
       <r>     1.6687     0.0000     0.0000 </r>
       <r>     1.7566     0.0000     0.0000 </r>
       <r>     1.8446     0.0000     0.0000 </r>
       <r>     1.9325     0.0000     0.0000 </r>
       <r>     2.0205     0.0000     0.0000 </r>
       <r>     2.1085     0.0000     0.0000 </r>
       <r>     2.1964     0.0000     0.0000 </r>
       <r>     2.2844     0.0000     0.0000 </r>
       <r>     2.3723     0.0000     0.0000 </r>
       <r>     2.4603     0.0000     0.0000 </r>
       <r>     2.5482     0.0000     0.0000 </r>
       <r>     2.6362     0.0000     0.0000 </r>
       <r>     2.7242     0.0000     0.0000 </r>
       <r>     2.8121     0.0000     0.0000 </r>
       <r>     2.9001     0.0000     0.0000 </r>
       <r>     2.9880     0.0000     0.0000 </r>
       <r>     3.0760     0.0000     0.0000 </r>
       <r>     3.1639     0.0000     0.0000 </r>
       <r>     3.2519     0.0000     0.0000 </r>
       <r>     3.3398     0.0000     0.0000 </r>
       <r>     3.4278     0.0000     0.0000 </r>
       <r>     3.5158     0.0000     0.0000 </r>
       <r>     3.6037     0.0000     0.0000 </r>
       <r>     3.6917     0.0000     0.0000 </r>
       <r>     3.7796     0.0000     0.0000 </r>
       <r>     3.8676     0.0000     0.0000 </r>
       <r>     3.9555     0.0000     0.0000 </r>
       <r>     4.0435     0.0000     0.0000 </r>
       <r>     4.1315     0.0000     0.0000 </r>
       <r>     4.2194     0.0000     0.0000 </r>
       <r>     4.3074     0.0000     0.0000 </r>
       <r>     4.3953     0.0000     0.0000 </r>
       <r>     4.4833     0.0000     0.0000 </r>
       <r>     4.5712     0.0000     0.0000 </r>
       <r>     4.6592     0.0000     0.0000 </r>
       <r>     4.7472     0.0000     0.0000 </r>
       <r>     4.8351     0.0000     0.0000 </r>
       <r>     4.9231     0.0000     0.0000 </r>
       <r>     5.0110     0.0000     0.0000 </r>
       <r>     5.0990     0.0000     0.0000 </r>
       <r>     5.1869     0.0000     0.0000 </r>
       <r>     5.2749     0.0000     0.0000 </r>
       <r>     5.3629     0.0000     0.0000 </r>
       <r>     5.4508     0.0000     0.0000 </r>
       <r>     5.5388     0.0000     0.0000 </r>
       <r>     5.6267     0.0000     0.0000 </r>
       <r>     5.7147     0.0000     0.0000 </r>
       <r>     5.8026     0.0000     0.0000 </r>
       <r>     5.8906     0.0000     0.0000 </r>
       <r>     5.9786     0.0000     0.0000 </r>
       <r>     6.0665     0.0000     0.0000 </r>
       <r>     6.1545     0.0000     0.0000 </r>
       <r>     6.2424     0.0000     0.0000 </r>
       <r>     6.3304     0.0000     0.0000 </r>
       <r>     6.4183     0.0000     0.0000 </r>
       <r>     6.5063     0.0000     0.0000 </r>
       <r>     6.5943     0.0000     0.0000 </r>
       <r>     6.6822     0.0000     0.0000 </r>
       <r>     6.7702     0.0000     0.0000 </r>
       <r>     6.8581     0.0000     0.0000 </r>
       <r>     6.9461     0.0000     0.0000 </r>
       <r>     7.0340     0.0000     0.0000 </r>
       <r>     7.1220     0.0000     0.0000 </r>
       <r>     7.2100     0.0000     0.0000 </r>
       <r>     7.2979     0.0000     0.0000 </r>
       <r>     7.3859     0.0000     0.0000 </r>
       <r>     7.4738     0.0000     0.0000 </r>
       <r>     7.5618     0.0000     0.0000 </r>
       <r>     7.6497     0.0000     0.0000 </r>
       <r>     7.7377     0.0000     0.0000 </r>
       <r>     7.8257     0.0000     0.0000 </r>
       <r>     7.9136     0.0000     0.0000 </r>
       <r>     8.0016     0.0000     0.0000 </r>
       <r>     8.0895     0.0000     0.0000 </r>
       <r>     8.1775     0.0000     0.0000 </r>
       <r>     8.2654     0.0000     0.0000 </r>
       <r>     8.3534     0.0000     0.0000 </r>
       <r>     8.4414     0.0000     0.0000 </r>
       <r>     8.5293     0.0000     0.0000 </r>
       <r>     8.6173     0.0000     0.0000 </r>
       <r>     8.7052     0.0000     0.0000 </r>
       <r>     8.7932     0.0000     0.0000 </r>
       <r>     8.8811     0.0000     0.0000 </r>
       <r>     8.9691     0.0000     0.0000 </r>
       <r>     9.0571     0.0000     0.0000 </r>
       <r>     9.1450     0.0000     0.0000 </r>
       <r>     9.2330     0.0000     0.0000 </r>
       <r>     9.3209     0.0000     0.0000 </r>
       <r>     9.4089     0.0000     0.0000 </r>
       <r>     9.4968     0.0000     0.0000 </r>
       <r>     9.5848     0.0000     0.0000 </r>
       <r>     9.6728     0.0000     0.0000 </r>
       <r>     9.7607     0.0000     0.0000 </r>
       <r>     9.8487     0.0000     0.0000 </r>
       <r>     9.9366     0.0000     0.0000 </r>
       <r>    10.0246     0.0000     0.0000 </r>
       <r>    10.1125     0.0000     0.0000 </r>
       <r>    10.2005     0.0000     0.0000 </r>
       <r>    10.2885     0.0000     0.0000 </r>
       <r>    10.3764     0.0000     0.0000 </r>
       <r>    10.4644     0.0000     0.0000 </r>
       <r>    10.5523     0.0000     0.0000 </r>
       <r>    10.6403     0.0000     0.0000 </r>
       <r>    10.7282     0.0000     0.0000 </r>
       <r>    10.8162     0.0000     0.0000 </r>
       <r>    10.9042     0.0000     0.0000 </r>
       <r>    10.9921     0.0000     0.0000 </r>
       <r>    11.0801     0.0000     0.0000 </r>
       <r>    11.1680     0.0000     0.0000 </r>
       <r>    11.2560     0.0000     0.0000 </r>
       <r>    11.3439     0.0000     0.0000 </r>
       <r>    11.4319     0.0000     0.0000 </r>
       <r>    11.5199     0.0000     0.0000 </r>
       <r>    11.6078     0.0000     0.0000 </r>
       <r>    11.6958     0.0000     0.0000 </r>
       <r>    11.7837     0.0000     0.0000 </r>
       <r>    11.8717     0.0000     0.0000 </r>
       <r>    11.9596     0.0000     0.0000 </r>
       <r>    12.0476     0.0000     0.0000 </r>
       <r>    12.1356     0.0000     0.0000 </r>
       <r>    12.2235     0.0000     0.0000 </r>
       <r>    12.3115     0.0000     0.0000 </r>
       <r>    12.3994     0.0000     0.0000 </r>
       <r>    12.4874     0.0000     0.0000 </r>
[...]
       <r>     9.1450     0.0000     0.0000 </r>
       <r>     9.2330     0.0000     0.0000 </r>
       <r>     9.3209     0.0000     0.0000 </r>
       <r>     9.4089     0.0000     0.0000 </r>
       <r>     9.4968     0.0000     0.0000 </r>
       <r>     9.5848     0.0000     0.0000 </r>
       <r>     9.6728     0.0000     0.0000 </r>
       <r>     9.7607     0.0000     0.0000 </r>
       <r>     9.8487     0.0000     0.0000 </r>
       <r>     9.9366     0.0000     0.0000 </r>
       <r>    10.0246     0.0000     0.0000 </r>
       <r>    10.1125     0.0000     0.0000 </r>
       <r>    10.2005     0.0000     0.0000 </r>
       <r>    10.2885     0.0000     0.0000 </r>
       <r>    10.3764     0.0000     0.0000 </r>
       <r>    10.4644     0.0000     0.0000 </r>
       <r>    10.5523     0.0000     0.0000 </r>
       <r>    10.6403     0.0000     0.0000 </r>
       <r>    10.7282     0.0000     0.0000 </r>
       <r>    10.8162     0.0000     0.0000 </r>
       <r>    10.9042     0.0000     0.0000 </r>
       <r>    10.9921     0.0000     0.0000 </r>
       <r>    11.0801     0.0000     0.0000 </r>
       <r>    11.1680     0.0000     0.0000 </r>
       <r>    11.2560     0.0000     0.0000 </r>
       <r>    11.3439     0.0000     0.0000 </r>
       <r>    11.4319     0.0000     0.0000 </r>
       <r>    11.5199     0.0000     0.0000 </r>
       <r>    11.6078     0.0000     0.0000 </r>
       <r>    11.6958     0.0000     0.0000 </r>
       <r>    11.7837     0.0000     0.0000 </r>
       <r>    11.8717     0.0000     0.0000 </r>
       <r>    11.9596     0.0000     0.0000 </r>
       <r>    12.0476     0.0000     0.0000 </r>
       <r>    12.1356     0.0000     0.0000 </r>
       <r>    12.2235     0.0000     0.0000 </r>
       <r>    12.3115     0.0000     0.0000 </r>
       <r>    12.3994     0.0000     0.0000 </r>
       <r>    12.4874     0.0000     0.0000 </r>
       <r>    12.5753     0.0000     0.0000 </r>
       <r>    12.6633     0.0000     0.0000 </r>
       <r>    12.7513     0.0000     0.0000 </r>
       <r>    12.8392     0.0000     0.0000 </r>
       <r>    12.9272     0.0000     0.0000 </r>
       <r>    13.0151     0.0000     0.0000 </r>
       <r>    13.1031     0.0000     0.0000 </r>
       <r>    13.1910     0.0000     0.0000 </r>
       <r>    13.2790     0.0000     0.0000 </r>
       <r>    13.3670     0.0000     0.0000 </r>
       <r>    13.4549     0.0000     0.0000 </r>
       <r>    13.5429     0.0000     0.0000 </r>
       <r>    13.6308     0.0000     0.0000 </r>
       <r>    13.7188     0.0000     0.0000 </r>
       <r>    13.8067     0.0000     0.0000 </r>
       <r>    13.8947     0.0000     0.0000 </r>
       <r>    13.9827     0.0000     0.0000 </r>
       <r>    14.0706     0.0000     0.0000 </r>
       <r>    14.1586     0.0000     0.0000 </r>
       <r>    14.2465     0.0000     0.0000 </r>
       <r>    14.3345     0.0000     0.0000 </r>
       <r>    14.4224     0.0000     0.0000 </r>
       <r>    14.5104     0.0000     0.0000 </r>
       <r>    14.5984     0.0000     0.0000 </r>
       <r>    14.6863     0.0000     0.0000 </r>
       <r>    14.7743     0.0000     0.0000 </r>
       <r>    14.8622     0.0000     0.0000 </r>
       <r>    14.9502     0.0000     0.0000 </r>
       <r>    15.0381     0.0000     0.0000 </r>
       <r>    15.1261     0.0000     0.0000 </r>
       <r>    15.2141     0.0000     0.0000 </r>
       <r>    15.3020     0.0000     0.0000 </r>
       <r>    15.3900     0.0000     0.0000 </r>
       <r>    15.4779     0.0000     0.0000 </r>
       <r>    15.5659     0.0000     0.0000 </r>
       <r>    15.6538     0.0000     0.0000 </r>
       <r>    15.7418     0.0000     0.0000 </r>
       <r>    15.8297     0.0000     0.0000 </r>
       <r>    15.9177     0.0000     0.0000 </r>
       <r>    16.0057     0.0000     0.0000 </r>
       <r>    16.0936     0.0000     0.0000 </r>
       <r>    16.1816     0.0000     0.0000 </r>
       <r>    16.2695     0.0000     0.0000 </r>
       <r>    16.3575     0.0000     0.0000 </r>
       <r>    16.4454     0.0000     0.0000 </r>
       <r>    16.5334     0.0000     0.0000 </r>
       <r>    16.6214     0.0000     0.0000 </r>
       <r>    16.7093     0.0000     0.0000 </r>
       <r>    16.7973     0.0000     0.0000 </r>
       <r>    16.8852     0.0000     0.0000 </r>
      </set>
      <set comment="spin 4">
       <r>    -9.5019     0.0000     0.0000 </r>
       <r>    -9.4139     0.0000     0.0000 </r>
       <r>    -9.3260     0.0000     0.0000 </r>
       <r>    -9.2380     0.0000     0.0000 </r>
       <r>    -9.1501     0.0000     0.0000 </r>
       <r>    -9.0621     0.0000     0.0000 </r>
       <r>    -8.9741     0.0000     0.0000 </r>
       <r>    -8.8862     0.0000     0.0000 </r>
       <r>    -8.7982     0.0000     0.0000 </r>
       <r>    -8.7103     0.0000     0.0000 </r>
       <r>    -8.6223     0.0000     0.0000 </r>
       <r>    -8.5344     0.0000     0.0000 </r>
       <r>    -8.4464     0.0000     0.0000 </r>
       <r>    -8.3584     0.0000     0.0000 </r>
       <r>    -8.2705     0.0000     0.0000 </r>
       <r>    -8.1825     0.0000     0.0000 </r>
       <r>    -8.0946     0.0000     0.0000 </r>
       <r>    -8.0066     0.0000     0.0000 </r>
       <r>    -7.9187     0.0000     0.0000 </r>
       <r>    -7.8307     0.0000     0.0000 </r>
       <r>    -7.7427     0.0000     0.0000 </r>
       <r>    -7.6548     0.0000     0.0000 </r>
       <r>    -7.5668     0.0000     0.0000 </r>
       <r>    -7.4789     0.0000     0.0000 </r>
       <r>    -7.3909     0.0000     0.0000 </r>
       <r>    -7.3030     0.0000     0.0000 </r>
       <r>    -7.2150     0.0000     0.0000 </r>
       <r>    -7.1270     0.0000     0.0000 </r>
       <r>    -7.0391     0.0000     0.0000 </r>
       <r>    -6.9511     0.0000     0.0000 </r>
       <r>    -6.8632     0.0000     0.0000 </r>
       <r>    -6.7752     0.0000     0.0000 </r>
       <r>    -6.6873     0.0000     0.0000 </r>
       <r>    -6.5993     0.0000     0.0000 </r>
       <r>    -6.5113     0.0000     0.0000 </r>
       <r>    -6.4234     0.0000     0.0000 </r>
       <r>    -6.3354     0.0000     0.0000 </r>
       <r>    -6.2475     0.0000     0.0000 </r>
       <r>    -6.1595     0.0000     0.0000 </r>
       <r>    -6.0716     0.0000     0.0000 </r>
       <r>    -5.9836     0.0000     0.0000 </r>
       <r>    -5.8956     0.0000     0.0000 </r>
       <r>    -5.8077     0.0000     0.0000 </r>
       <r>    -5.7197     0.0000     0.0000 </r>
       <r>    -5.6318     0.0000     0.0000 </r>
       <r>    -5.5438     0.0000     0.0000 </r>
       <r>    -5.4559     0.0000     0.0000 </r>
       <r>    -5.3679     0.0000     0.0000 </r>
       <r>    -5.2799     0.0000     0.0000 </r>
       <r>    -5.1920     0.0000     0.0000 </r>
       <r>    -5.1040     0.0000     0.0000 </r>
       <r>    -5.0161     0.0000     0.0000 </r>
       <r>    -4.9281     0.0000     0.0000 </r>
       <r>    -4.8402     0.0000     0.0000 </r>
       <r>    -4.7522     0.0000     0.0000 </r>
       <r>    -4.6642     0.0000     0.0000 </r>
       <r>    -4.5763     0.0000     0.0000 </r>
       <r>    -4.4883     0.0000     0.0000 </r>
       <r>    -4.4004     0.0000     0.0000 </r>
       <r>    -4.3124     0.0000     0.0000 </r>
       <r>    -4.2245     0.0000     0.0000 </r>
       <r>    -4.1365     0.0000     0.0000 </r>
       <r>    -4.0485     0.0000     0.0000 </r>
       <r>    -3.9606     0.0000     0.0000 </r>
       <r>    -3.8726     0.0000     0.0000 </r>
       <r>    -3.7847     0.0000     0.0000 </r>
       <r>    -3.6967     0.0000     0.0000 </r>
       <r>    -3.6088     0.0000     0.0000 </r>
       <r>    -3.5208     0.0000     0.0000 </r>
       <r>    -3.4328     0.0000     0.0000 </r>
       <r>    -3.3449     0.0000     0.0000 </r>
       <r>    -3.2569     0.0000     0.0000 </r>
       <r>    -3.1690     0.0000     0.0000 </r>
       <r>    -3.0810     0.0000     0.0000 </r>
       <r>    -2.9931     0.0000     0.0000 </r>
       <r>    -2.9051     0.0000     0.0000 </r>
       <r>    -2.8171     0.0000     0.0000 </r>
       <r>    -2.7292     0.0000     0.0000 </r>
       <r>    -2.6412     0.0000     0.0000 </r>
       <r>    -2.5533     0.0000     0.0000 </r>
       <r>    -2.4653     0.0000     0.0000 </r>
       <r>    -2.3774     0.0000     0.0000 </r>
       <r>    -2.2894     0.0000     0.0000 </r>
       <r>    -2.2014     0.0000     0.0000 </r>
       <r>    -2.1135     0.0000     0.0000 </r>
       <r>    -2.0255     0.0000     0.0000 </r>
       <r>    -1.9376     0.0000     0.0000 </r>
       <r>    -1.8496     0.0000     0.0000 </r>
       <r>    -1.7617     0.0000     0.0000 </r>
       <r>    -1.6737     0.0000     0.0000 </r>
       <r>    -1.5857     0.0000     0.0000 </r>
       <r>    -1.4978     0.0000     0.0000 </r>
       <r>    -1.4098     0.0000     0.0000 </r>
       <r>    -1.3219     0.0000     0.0000 </r>
       <r>    -1.2339     0.0000     0.0000 </r>
       <r>    -1.1460     0.0000     0.0000 </r>
       <r>    -1.0580     0.0000     0.0000 </r>
       <r>    -0.9700     0.0000     0.0000 </r>
       <r>    -0.8821     0.0000     0.0000 </r>
       <r>    -0.7941     0.0000     0.0000 </r>
       <r>    -0.7062     0.0000     0.0000 </r>
       <r>    -0.6182     0.0000     0.0000 </r>
       <r>    -0.5303     0.0000     0.0000 </r>
       <r>    -0.4423     0.0000     0.0000 </r>
       <r>    -0.3543     0.0000     0.0000 </r>
       <r>    -0.2664     0.0000     0.0000 </r>
       <r>    -0.1784     0.0000     0.0000 </r>
       <r>    -0.0905     0.0000     0.0000 </r>
       <r>    -0.0025     0.0000     0.0000 </r>
       <r>     0.0854     0.0000     0.0000 </r>
       <r>     0.1734     0.0000     0.0000 </r>
       <r>     0.2614     0.0000     0.0000 </r>
       <r>     0.3493     0.0000     0.0000 </r>
       <r>     0.4373     0.0000     0.0000 </r>
       <r>     0.5252     0.0000     0.0000 </r>
       <r>     0.6132     0.0000     0.0000 </r>
       <r>     0.7011     0.0000     0.0000 </r>
       <r>     0.7891     0.0000     0.0000 </r>
       <r>     0.8771     0.0000     0.0000 </r>
       <r>     0.9650     0.0000     0.0000 </r>
       <r>     1.0530     0.0000     0.0000 </r>
       <r>     1.1409     0.0000     0.0000 </r>
       <r>     1.2289     0.0000     0.0000 </r>
       <r>     1.3168     0.0000     0.0000 </r>
       <r>     1.4048     0.0000     0.0000 </r>
       <r>     1.4928     0.0000     0.0000 </r>
       <r>     1.5807     0.0000     0.0000 </r>
       <r>     1.6687     0.0000     0.0000 </r>
       <r>     1.7566     0.0000     0.0000 </r>
       <r>     1.8446     0.0000     0.0000 </r>
       <r>     1.9325     0.0000     0.0000 </r>
       <r>     2.0205     0.0000     0.0000 </r>
       <r>     2.1085     0.0000     0.0000 </r>
       <r>     2.1964     0.0000     0.0000 </r>
       <r>     2.2844     0.0000     0.0000 </r>
       <r>     2.3723     0.0000     0.0000 </r>
       <r>     2.4603     0.0000     0.0000 </r>
       <r>     2.5482     0.0000     0.0000 </r>
       <r>     2.6362     0.0000     0.0000 </r>
       <r>     2.7242     0.0000     0.0000 </r>
       <r>     2.8121     0.0000     0.0000 </r>
       <r>     2.9001     0.0000     0.0000 </r>
       <r>     2.9880     0.0000     0.0000 </r>
       <r>     3.0760     0.0000     0.0000 </r>
       <r>     3.1639     0.0000     0.0000 </r>
       <r>     3.2519     0.0000     0.0000 </r>
       <r>     3.3398     0.0000     0.0000 </r>
       <r>     3.4278     0.0000     0.0000 </r>
       <r>     3.5158     0.0000     0.0000 </r>
       <r>     3.6037     0.0000     0.0000 </r>
       <r>     3.6917     0.0000     0.0000 </r>
       <r>     3.7796     0.0000     0.0000 </r>
       <r>     3.8676     0.0000     0.0000 </r>
       <r>     3.9555     0.0000     0.0000 </r>
       <r>     4.0435     0.0000     0.0000 </r>
       <r>     4.1315     0.0000     0.0000 </r>
       <r>     4.2194     0.0000     0.0000 </r>
       <r>     4.3074     0.0000     0.0000 </r>
       <r>     4.3953     0.0000     0.0000 </r>
       <r>     4.4833     0.0000     0.0000 </r>
       <r>     4.5712     0.0000     0.0000 </r>
       <r>     4.6592     0.0000     0.0000 </r>
       <r>     4.7472     0.0000     0.0000 </r>
       <r>     4.8351     0.0000     0.0000 </r>
       <r>     4.9231     0.0000     0.0000 </r>
       <r>     5.0110     0.0000     0.0000 </r>
       <r>     5.0990     0.0000     0.0000 </r>
       <r>     5.1869     0.0000     0.0000 </r>
       <r>     5.2749     0.0000     0.0000 </r>
       <r>     5.3629     0.0000     0.0000 </r>
       <r>     5.4508     0.0000     0.0000 </r>
       <r>     5.5388     0.0000     0.0000 </r>
       <r>     5.6267     0.0000     0.0000 </r>
       <r>     5.7147     0.0000     0.0000 </r>
       <r>     5.8026     0.0000     0.0000 </r>
       <r>     5.8906     0.0000     0.0000 </r>
       <r>     5.9786     0.0000     0.0000 </r>
       <r>     6.0665     0.0000     0.0000 </r>
       <r>     6.1545     0.0000     0.0000 </r>
       <r>     6.2424     0.0000     0.0000 </r>
       <r>     6.3304     0.0000     0.0000 </r>
       <r>     6.4183     0.0000     0.0000 </r>
       <r>     6.5063     0.0000     0.0000 </r>
       <r>     6.5943     0.0000     0.0000 </r>
       <r>     6.6822     0.0000     0.0000 </r>
       <r>     6.7702     0.0000     0.0000 </r>
       <r>     6.8581     0.0000     0.0000 </r>
       <r>     6.9461     0.0000     0.0000 </r>
       <r>     7.0340     0.0000     0.0000 </r>
       <r>     7.1220     0.0000     0.0000 </r>
       <r>     7.2100     0.0000     0.0000 </r>
       <r>     7.2979     0.0000     0.0000 </r>
       <r>     7.3859     0.0000     0.0000 </r>
       <r>     7.4738     0.0000     0.0000 </r>
       <r>     7.5618     0.0000     0.0000 </r>
       <r>     7.6497     0.0000     0.0000 </r>
       <r>     7.7377     0.0000     0.0000 </r>
       <r>     7.8257     0.0000     0.0000 </r>
       <r>     7.9136     0.0000     0.0000 </r>
       <r>     8.0016     0.0000     0.0000 </r>
       <r>     8.0895     0.0000     0.0000 </r>
       <r>     8.1775     0.0000     0.0000 </r>
       <r>     8.2654     0.0000     0.0000 </r>
       <r>     8.3534     0.0000     0.0000 </r>
       <r>     8.4414     0.0000     0.0000 </r>
       <r>     8.5293     0.0000     0.0000 </r>
       <r>     8.6173     0.0000     0.0000 </r>
       <r>     8.7052     0.0000     0.0000 </r>
       <r>     8.7932     0.0000     0.0000 </r>
       <r>     8.8811     0.0000     0.0000 </r>
       <r>     8.9691     0.0000     0.0000 </r>
       <r>     9.0571     0.0000     0.0000 </r>
       <r>     9.1450     0.0000     0.0000 </r>
       <r>     9.2330     0.0000     0.0000 </r>
       <r>     9.3209     0.0000     0.0000 </r>
       <r>     9.4089     0.0000     0.0000 </r>
       <r>     9.4968     0.0000     0.0000 </r>
       <r>     9.5848     0.0000     0.0000 </r>
       <r>     9.6728     0.0000     0.0000 </r>
       <r>     9.7607     0.0000     0.0000 </r>
       <r>     9.8487     0.0000     0.0000 </r>
       <r>     9.9366     0.0000     0.0000 </r>
       <r>    10.0246     0.0000     0.0000 </r>
       <r>    10.1125     0.0000     0.0000 </r>
       <r>    10.2005     0.0000     0.0000 </r>
       <r>    10.2885     0.0000     0.0000 </r>
       <r>    10.3764     0.0000     0.0000 </r>
       <r>    10.4644     0.0000     0.0000 </r>
       <r>    10.5523     0.0000     0.0000 </r>
       <r>    10.6403     0.0000     0.0000 </r>
       <r>    10.7282     0.0000     0.0000 </r>
       <r>    10.8162     0.0000     0.0000 </r>
       <r>    10.9042     0.0000     0.0000 </r>
       <r>    10.9921     0.0000     0.0000 </r>
       <r>    11.0801     0.0000     0.0000 </r>
       <r>    11.1680     0.0000     0.0000 </r>
       <r>    11.2560     0.0000     0.0000 </r>
       <r>    11.3439     0.0000     0.0000 </r>
       <r>    11.4319     0.0000     0.0000 </r>
       <r>    11.5199     0.0000     0.0000 </r>
       <r>    11.6078     0.0000     0.0000 </r>
       <r>    11.6958     0.0000     0.0000 </r>
       <r>    11.7837     0.0000     0.0000 </r>
       <r>    11.8717     0.0000     0.0000 </r>
       <r>    11.9596     0.0000     0.0000 </r>
       <r>    12.0476     0.0000     0.0000 </r>
       <r>    12.1356     0.0000     0.0000 </r>
       <r>    12.2235     0.0000     0.0000 </r>
       <r>    12.3115     0.0000     0.0000 </r>
       <r>    12.3994     0.0000     0.0000 </r>
       <r>    12.4874     0.0000     0.0000 </r>
       <r>    12.5753     0.0000     0.0000 </r>
       <r>    12.6633     0.0000     0.0000 </r>
       <r>    12.7513     0.0000     0.0000 </r>
       <r>    12.8392     0.0000     0.0000 </r>
       <r>    12.9272     0.0000     0.0000 </r>
       <r>    13.0151     0.0000     0.0000 </r>
       <r>    13.1031     0.0000     0.0000 </r>
       <r>    13.1910     0.0000     0.0000 </r>
       <r>    13.2790     0.0000     0.0000 </r>
       <r>    13.3670     0.0000     0.0000 </r>
       <r>    13.4549     0.0000     0.0000 </r>
       <r>    13.5429     0.0000     0.0000 </r>
       <r>    13.6308     0.0000     0.0000 </r>
       <r>    13.7188     0.0000     0.0000 </r>
       <r>    13.8067     0.0000     0.0000 </r>
       <r>    13.8947     0.0000     0.0000 </r>
       <r>    13.9827     0.0000     0.0000 </r>
       <r>    14.0706     0.0000     0.0000 </r>
       <r>    14.1586     0.0000     0.0000 </r>
       <r>    14.2465     0.0000     0.0000 </r>
       <r>    14.3345     0.0000     0.0000 </r>
       <r>    14.4224     0.0000     0.0000 </r>
       <r>    14.5104     0.0000     0.0000 </r>
       <r>    14.5984     0.0000     0.0000 </r>
       <r>    14.6863     0.0000     0.0000 </r>
       <r>    14.7743     0.0000     0.0000 </r>
       <r>    14.8622     0.0000     0.0000 </r>
       <r>    14.9502     0.0000     0.0000 </r>
       <r>    15.0381     0.0000     0.0000 </r>
       <r>    15.1261     0.0000     0.0000 </r>
       <r>    15.2141     0.0000     0.0000 </r>
       <r>    15.3020     0.0000     0.0000 </r>
       <r>    15.3900     0.0000     0.0000 </r>
       <r>    15.4779     0.0000     0.0000 </r>
       <r>    15.5659     0.0000     0.0000 </r>
       <r>    15.6538     0.0000     0.0000 </r>
       <r>    15.7418     0.0000     0.0000 </r>
       <r>    15.8297     0.0000     0.0000 </r>
       <r>    15.9177     0.0000     0.0000 </r>
       <r>    16.0057     0.0000     0.0000 </r>
       <r>    16.0936     0.0000     0.0000 </r>
       <r>    16.1816     0.0000     0.0000 </r>
       <r>    16.2695     0.0000     0.0000 </r>
       <r>    16.3575     0.0000     0.0000 </r>
       <r>    16.4454     0.0000     0.0000 </r>
       <r>    16.5334     0.0000     0.0000 </r>
       <r>    16.6214     0.0000     0.0000 </r>
       <r>    16.7093     0.0000     0.0000 </r>
       <r>    16.7973     0.0000     0.0000 </r>
       <r>    16.8852     0.0000     0.0000 </r>
      </set>
     </set>
    </array>
   </total>
  </dos>
 </calculation>
 <structure name="finalpos" >
  <crystal>
   <varray name="basis" >
    <v>       0.00000000       3.02920000       3.02920000 </v>
    <v>       3.02920000       0.00000000       3.02920000 </v>
    <v>       3.02920000       3.02920000       0.00000000 </v>
   </varray>
   <i name="volume">     55.59219731 </i>
   <varray name="rec_basis" >
    <v>      -0.16506008       0.16506008       0.16506008 </v>
    <v>       0.16506008      -0.16506008       0.16506008 </v>
    <v>       0.16506008       0.16506008      -0.16506008 </v>
   </varray>
  </crystal>
  <varray name="positions" >
   <v>       0.00000000       0.00000000       0.00000000 </v>
   <v>       0.75000000       0.75000000       0.75000000 </v>
  </varray>
 </structure>
</modeling>
