<?xml version="1.0" encoding="ISO-8859-1"?>
<modeling>
 <generator>
  <i name="program" type="string">vasp </i>
  <i name="version" type="string">5.4.4.18Apr17-6-g9f103f2a35  </i>
  <i name="subversion" type="string">(build Nov 08 2017 12:56:59) complex            parallel </i>
  <i name="platform" type="string">LinuxIFC </i>
  <i name="date" type="string">2020 06 22 </i>
  <i name="time" type="string">23:33:46 </i>
 </generator>
 <incar>
  <i type="int" name="ISTART">     0</i>
  <i type="string" name="PREC">n</i>
  <i type="string" name="ALGO"> D</i>
  <i type="logical" name="LSORBIT"> T  </i>
  <v name="SAXIS">      0.00000000      0.00000000      1.00000000</v>
  <i type="int" name="ISPIN">     2</i>
  <i type="int" name="ICHARG">     2</i>
  <i name="EDIFF">      0.00010000</i>
  <i name="ENCUT">    300.00000000</i>
  <v name="MAGMOM">      0.00000000      0.00000000      0.00000000      0.00000000      0.00000000      0.00000000</v>
  <i name="SIGMA">      0.05000000</i>
  <i type="int" name="LMAXMIX">     4</i>
  <v type="int" name="KPOINT_BSE">    -1     0     0     0</v>
  <i type="string" name="GGA"> PE</i>
  <i type="logical" name="LDAU"> T  </i>
  <v type="int" name="LDAUL">     1     1</v>
  <v name="LDAUU">      2.31100000    -10.00000000</v>
  <v name="LDAUJ">      0.00000000      0.00000000</v>
 </incar>
 <structure name="primitive_cell" >
  <crystal>
   <varray name="basis" >
    <v>       0.00000000       3.02920000       3.02920000 </v>
    <v>       3.02920000       0.00000000       3.02920000 </v>
    <v>       3.02920000       3.02920000       0.00000000 </v>
   </varray>
   <i name="volume">     55.59219731 </i>
   <varray name="rec_basis" >
    <v>      -0.16506008       0.16506008       0.16506008 </v>
    <v>       0.16506008      -0.16506008       0.16506008 </v>
    <v>       0.16506008       0.16506008      -0.16506008 </v>
   </varray>
  </crystal>
  <varray name="positions" >
   <v>       0.00000000       0.00000000       0.00000000 </v>
   <v>       0.25000000       0.25000000       0.25000000 </v>
  </varray>
 </structure>
 <varray name="primitive_index" >
  <v type="int" >        1 </v>
  <v type="int" >        2 </v>
 </varray>
 <kpoints>
  <generation param="Gamma">
   <v type="int" name="divisions">       6        6        6 </v>
   <v name="usershift">      0.00000000       0.00000000       0.00000000 </v>
   <v name="genvec1">      0.16666667       0.00000000       0.00000000 </v>
   <v name="genvec2">      0.00000000       0.16666667       0.00000000 </v>
   <v name="genvec3">      0.00000000       0.00000000       0.16666667 </v>
   <v name="shift">      0.00000000       0.00000000       0.00000000 </v>
  </generation>
  <varray name="kpointlist" >
   <v>       0.00000000       0.00000000       0.00000000 </v>
   <v>       0.16666667       0.00000000       0.00000000 </v>
   <v>       0.33333333       0.00000000       0.00000000 </v>
   <v>       0.50000000       0.00000000       0.00000000 </v>
   <v>      -0.33333333       0.00000000       0.00000000 </v>
   <v>      -0.16666667       0.00000000       0.00000000 </v>
   <v>       0.16666667       0.16666667       0.00000000 </v>
   <v>       0.33333333       0.16666667       0.00000000 </v>
   <v>       0.50000000       0.16666667       0.00000000 </v>
   <v>      -0.33333333       0.16666667       0.00000000 </v>
   <v>      -0.16666667       0.16666667       0.00000000 </v>
   <v>       0.33333333       0.33333333       0.00000000 </v>
   <v>       0.50000000       0.33333333       0.00000000 </v>
   <v>      -0.33333333       0.33333333       0.00000000 </v>
   <v>      -0.16666667       0.33333333       0.00000000 </v>
   <v>       0.50000000       0.50000000       0.00000000 </v>
   <v>      -0.33333333       0.50000000       0.00000000 </v>
   <v>      -0.16666667       0.50000000       0.00000000 </v>
   <v>      -0.16666667      -0.33333333       0.00000000 </v>
   <v>       0.50000000       0.33333333       0.16666667 </v>
   <v>      -0.33333333       0.33333333       0.16666667 </v>
   <v>      -0.33333333       0.50000000       0.16666667 </v>
  </varray>
  <varray name="weights" >
   <v>       0.00462963 </v>
   <v>       0.01851852 </v>
   <v>       0.01851852 </v>
   <v>       0.01851852 </v>
   <v>       0.01851852 </v>
   <v>       0.01851852 </v>
   <v>       0.02777778 </v>
   <v>       0.05555556 </v>
   <v>       0.05555556 </v>
   <v>       0.05555556 </v>
   <v>       0.05555556 </v>
   <v>       0.02777778 </v>
   <v>       0.05555556 </v>
   <v>       0.05555556 </v>
   <v>       0.05555556 </v>
   <v>       0.01388889 </v>
   <v>       0.05555556 </v>
   <v>       0.05555556 </v>
   <v>       0.05555556 </v>
   <v>       0.11111111 </v>
   <v>       0.11111111 </v>
   <v>       0.05555556 </v>
  </varray>
 </kpoints>
 <parameters>
  <separator name="general" >
   <i type="string" name="SYSTEM">unknown system</i>
   <i type="logical" name="LCOMPAT"> F  </i>
  </separator>
  <separator name="electronic" >
   <i type="string" name="PREC">n</i>
   <i name="ENMAX">    300.00000000</i>
   <i name="ENAUG">    462.75800000</i>
   <i name="EDIFF">      0.00010000</i>
   <i type="int" name="IALGO">    53</i>
   <i type="int" name="IWAVPR">    10</i>
   <i type="int" name="NBANDS">    56</i>
   <i name="NELECT">      8.00000000</i>
   <i type="int" name="TURBO">     0</i>
   <i type="int" name="IRESTART">     0</i>
   <i type="int" name="NREBOOT">     0</i>
   <i type="int" name="NMIN">     0</i>
   <i name="EREF">      0.00000000</i>
   <separator name="electronic smearing" >
    <i type="int" name="ISMEAR">     1</i>
    <i name="SIGMA">      0.05000000</i>
    <i name="KSPACING">      0.50000000</i>
    <i type="logical" name="KGAMMA"> T  </i>
   </separator>
   <separator name="electronic projectors" >
    <i type="logical" name="LREAL"> F  </i>
    <v name="ROPT">      0.00000000      0.00000000</v>
    <i type="int" name="LMAXPAW">  -100</i>
    <i type="int" name="LMAXMIX">     4</i>
    <i type="logical" name="NLSPLINE"> F  </i>
   </separator>
   <separator name="electronic startup" >
    <i type="int" name="ISTART">     0</i>
    <i type="int" name="ICHARG">     2</i>
    <i type="int" name="INIWAV">     1</i>
   </separator>
   <separator name="electronic spin" >
    <i type="int" name="ISPIN">     1</i>
    <i type="logical" name="LNONCOLLINEAR"> T  </i>
    <v name="MAGMOM">      0.00000000      0.00000000      0.00000000      0.00000000      0.00000000      0.00000000</v>
    <i name="NUPDOWN">     -1.00000000</i>
    <i type="logical" name="LSORBIT"> T  </i>
    <v name="SAXIS">      0.00000000      0.00000000      1.00000000</v>
    <i type="logical" name="LSPIRAL"> F  </i>
    <v name="QSPIRAL">      0.00000000      0.00000000      0.00000000</v>
    <i type="logical" name="LZEROZ"> F  </i>
   </separator>
   <separator name="electronic exchange-correlation" >
    <i type="logical" name="LASPH"> F  </i>
    <i type="logical" name="LMETAGGA"> F  </i>
   </separator>
   <separator name="electronic convergence" >
    <i type="int" name="NELM">    60</i>
    <i type="int" name="NELMDL">    -5</i>
    <i type="int" name="NELMIN">     2</i>
    <i name="ENINI">    300.00000000</i>
    <separator name="electronic convergence detail" >
     <i type="logical" name="LDIAG"> T  </i>
     <i type="logical" name="LSUBROT"> F  </i>
     <i name="WEIMIN">      0.00000000</i>
     <i name="EBREAK">      0.00000045</i>
     <i name="DEPER">      0.30000000</i>
     <i type="int" name="NRMM">     4</i>
     <i name="TIME">      0.40000000</i>
    </separator>
   </separator>
   <separator name="electronic mixer" >
    <i name="AMIX">      0.40000000</i>
    <i name="BMIX">      1.00000000</i>
    <i name="AMIN">      0.10000000</i>
    <i name="AMIX_MAG">      1.60000000</i>
    <i name="BMIX_MAG">      1.00000000</i>
    <separator name="electronic mixer details" >
     <i type="int" name="IMIX">     4</i>
     <i type="logical" name="MIXFIRST"> F  </i>
     <i type="int" name="MAXMIX">   -45</i>
     <i name="WC">    100.00000000</i>
     <i type="int" name="INIMIX">     1</i>
     <i type="int" name="MIXPRE">     1</i>
     <i type="int" name="MREMOVE">     5</i>
    </separator>
   </separator>
   <separator name="electronic dipolcorrection" >
    <i type="logical" name="LDIPOL"> F  </i>
    <i type="logical" name="LMONO"> F  </i>
    <i type="int" name="IDIPOL">     0</i>
    <i name="EPSILON">      1.00000000</i>
    <v name="DIPOL">   -100.00000000   -100.00000000   -100.00000000</v>
    <i name="EFIELD">      0.00000000</i>
   </separator>
  </separator>
  <separator name="grids" >
   <i type="int" name="NGX">    18</i>
   <i type="int" name="NGY">    18</i>
   <i type="int" name="NGZ">    18</i>
   <i type="int" name="NGXF">    36</i>
   <i type="int" name="NGYF">    36</i>
   <i type="int" name="NGZF">    36</i>
   <i type="logical" name="ADDGRID"> F  </i>
  </separator>
  <separator name="ionic" >
   <i type="int" name="NSW">     0</i>
   <i type="int" name="IBRION">    -1</i>
   <i type="int" name="MDALGO">     0</i>
   <i type="int" name="ISIF">     2</i>
   <i name="PSTRESS">      0.00000000</i>
   <i name="EDIFFG">      0.00100000</i>
   <i type="int" name="NFREE">     0</i>
   <i name="POTIM">      0.50000000</i>
   <i name="SMASS">     -3.00000000</i>
   <i name="SCALEE">      1.00000000</i>
  </separator>
  <separator name="ionic md" >
   <i name="TEBEG">      0.00010000</i>
   <i name="TEEND">      0.00010000</i>
   <i type="int" name="NBLOCK">     1</i>
   <i type="int" name="KBLOCK">     1</i>
   <i type="int" name="NPACO">   256</i>
   <i name="APACO">     16.00000000</i>
  </separator>
  <separator name="symmetry" >
   <i type="int" name="ISYM">     2</i>
   <i name="SYMPREC">      0.00001000</i>
  </separator>
  <separator name="dos" >
   <i type="int" name="LORBIT">     0</i>
   <v name="RWIGS">     -1.00000000     -1.00000000</v>
   <i type="int" name="NEDOS">   301</i>
   <i name="EMIN">     10.00000000</i>
   <i name="EMAX">    -10.00000000</i>
   <i name="EFERMI">      0.00000000</i>
  </separator>
  <separator name="writing" >
   <i type="int" name="NWRITE">     2</i>
   <i type="logical" name="LWAVE"> T  </i>
   <i type="logical" name="LDOWNSAMPLE"> F  </i>
   <i type="logical" name="LCHARG"> T  </i>
   <i type="logical" name="LPARD"> F  </i>
   <i type="logical" name="LVTOT"> F  </i>
   <i type="logical" name="LVHAR"> F  </i>
   <i type="logical" name="LELF"> F  </i>
   <i type="logical" name="LOPTICS"> F  </i>
   <v name="STM">      0.00000000      0.00000000      0.00000000      0.00000000      0.00000000      0.00000000      0.00000000</v>
  </separator>
  <separator name="performance" >
   <i type="int" name="NPAR">    56</i>
   <i type="int" name="NSIM">     4</i>
   <i type="int" name="NBLK">    -1</i>
   <i type="logical" name="LPLANE"> T  </i>
   <i type="logical" name="LSCALAPACK"> T  </i>
   <i type="logical" name="LSCAAWARE"> T  </i>
   <i type="logical" name="LSCALU"> F  </i>
   <i type="logical" name="LASYNC"> F  </i>
   <i type="logical" name="LORBITALREAL"> F  </i>
  </separator>
  <separator name="miscellaneous" >
   <i type="int" name="IDIOT">     3</i>
   <i type="int" name="ISPECIAL">     0</i>
   <i type="logical" name="LMUSIC"> F  </i>
   <v name="POMASS">    114.82000000     74.92200000</v>
   <v name="DARWINR">      0.00000000      0.00000000</v>
   <v name="DARWINV">      1.00000000      1.00000000</v>
   <i type="logical" name="LCORR"> T  </i>
  </separator>
  <i type="logical" name="GGA_COMPAT"> T  </i>
  <i type="logical" name="LBERRY"> F  </i>
  <i type="int" name="ICORELEVEL">     0</i>
  <i type="logical" name="LDAU"> T  </i>
  <v type="int" name="LDAUTYPE">     2</v>
  <v type="int" name="LDAUL">     1</v>
  <v name="LDAUU">      2.31100000</v>
  <v name="LDAUJ">      0.00000000</v>
  <i type="int" name="LDAUPRINT">     0</i>
  <i type="int" name="I_CONSTRAINED_M">     0</i>
  <separator name="electronic exchange-correlation" >
   <i type="string" name="GGA">PE</i>
   <i type="int" name="VOSKOWN">     0</i>
   <i type="logical" name="LHFCALC"> F  </i>
   <i type="string" name="PRECFOCK"></i>
   <i type="logical" name="LSYMGRAD"> F  </i>
   <i type="logical" name="LHFONE"> F  </i>
   <i type="logical" name="LRHFCALC"> F  </i>
   <i type="logical" name="LTHOMAS"> F  </i>
   <i type="logical" name="LMODELHF"> F  </i>
   <i name="ENCUT4O">     -1.00000000</i>
   <i type="int" name="EXXOEP">     0</i>
   <i type="int" name="FOURORBIT">     0</i>
   <i name="AEXX">      0.00000000</i>
   <i name="HFALPHA">      0.00000000</i>
   <i name="MCALPHA">      0.00000000</i>
   <i name="ALDAX">      1.00000000</i>
   <i name="AGGAX">      1.00000000</i>
   <i name="ALDAC">      1.00000000</i>
   <i name="AGGAC">      1.00000000</i>
   <i type="int" name="NKREDX">     1</i>
   <i type="int" name="NKREDY">     1</i>
   <i type="int" name="NKREDZ">     1</i>
   <i type="logical" name="SHIFTRED"> F  </i>
   <i type="logical" name="ODDONLY"> F  </i>
   <i type="logical" name="EVENONLY"> F  </i>
   <i type="int" name="LMAXFOCK">     0</i>
   <i type="int" name="NMAXFOCKAE">     0</i>
   <i type="logical" name="LFOCKAEDFT"> F  </i>
   <i name="HFSCREEN">      0.00000000</i>
   <i name="HFSCREENC">      0.00000000</i>
   <i type="int" name="NBANDSGWLOW">     0</i>
  </separator>
  <separator name="vdW DFT" >
   <i type="logical" name="LUSE_VDW"> F  </i>
   <i name="Zab_VDW">     -0.84910000</i>
   <i name="PARAM1">      0.12340000</i>
   <i name="PARAM2">      1.00000000</i>
   <i name="PARAM3">      0.00000000</i>
  </separator>
  <separator name="model GW" >
   <i type="int" name="MODEL_GW">     0</i>
   <i name="MODEL_EPS0">     16.67765919</i>
   <i name="MODEL_ALPHA">      1.00000000</i>
  </separator>
  <separator name="linear response parameters" >
   <i type="logical" name="LEPSILON"> F  </i>
   <i type="logical" name="LRPA"> F  </i>
   <i type="logical" name="LNABLA"> F  </i>
   <i type="logical" name="LVEL"> F  </i>
   <i type="int" name="KINTER">     0</i>
   <i name="CSHIFT">      0.10000000</i>
   <i name="OMEGAMAX">     -1.00000000</i>
   <i name="DEG_THRESHOLD">      0.00200000</i>
   <i name="RTIME">     -0.10000000</i>
   <i name="WPLASMAI">      0.00000000</i>
   <v name="DFIELD">      0.00000000      0.00000000      0.00000000</v>
   <v name="WPLASMA">      0.00000000      0.00000000      0.00000000      0.00000000      0.00000000      0.00000000      0.00000000      0.00000000      0.00000000</v>
  </separator>
  <separator name="orbital magnetization" >
   <i type="logical" name="NUCIND"> F  </i>
   <v name="MAGPOS">      0.00000000      0.00000000      0.00000000</v>
   <i type="logical" name="LNICSALL"> T  </i>
   <i type="logical" name="ORBITALMAG"> F  </i>
   <i type="logical" name="LMAGBLOCH"> F  </i>
   <i type="logical" name="LCHIMAG"> F  </i>
   <i type="logical" name="LGAUGE"> T  </i>
   <i type="int" name="MAGATOM">     0</i>
   <v name="MAGDIPOL">      0.00000000      0.00000000      0.00000000</v>
   <v name="AVECCONST">      0.00000000      0.00000000      0.00000000</v>
  </separator>
  <separator name="response functions" >
   <i type="logical" name="LADDER"> F  </i>
   <i type="logical" name="LRPAFORCE"> F  </i>
   <i type="logical" name="LFXC"> F  </i>
   <i type="logical" name="LHARTREE"> T  </i>
   <i type="int" name="IBSE">     0</i>
   <v type="int" name="KPOINT">    -1     0     0     0</v>
   <i type="logical" name="LTCTE"> F  </i>
   <i type="logical" name="LTETE"> F  </i>
   <i type="logical" name="LTRIPLET"> F  </i>
   <i type="logical" name="LFXCEPS"> F  </i>
   <i type="logical" name="LFXHEG"> F  </i>
   <i type="int" name="NATURALO">     2</i>
   <i type="logical" name="L2ORDER"> F  </i>
   <i type="logical" name="LMP2LT"> F  </i>
   <i type="logical" name="LUSEW"> F  </i>
   <i name="ENCUTGW">     -2.00000000</i>
   <i name="ENCUTGWSOFT">     -2.00000000</i>
   <i name="ENCUTLF">     -1.00000000</i>
   <i type="int" name="LMAXMP2">    -1</i>
   <i name="SCISSOR">      0.00000000</i>
   <i type="int" name="NOMEGA">     0</i>
   <i type="int" name="NOMEGAR">     0</i>
   <i type="int" name="NBANDSGW">    -1</i>
   <i type="int" name="NBANDSO">    -1</i>
   <i type="int" name="NBANDSV">    -1</i>
   <i type="int" name="NELM">     1</i>
   <i type="int" name="NELMHF">     1</i>
   <i type="int" name="DIM">     3</i>
   <i type="int" name="ANTIRES">     0</i>
   <i name="OMEGAMAX">    -30.00000000</i>
   <i name="OMEGAMIN">    -30.00000000</i>
   <i name="OMEGATL">   -200.00000000</i>
   <i type="int" name="OMEGAGRID">   140</i>
   <i name="CSHIFT">     -0.10000000</i>
   <i type="logical" name="SELFENERGY"> F  </i>
   <i type="logical" name="LSPECTRAL"> F  </i>
   <i type="logical" name="LSPECTRALGW"> F  </i>
   <i type="logical" name="LSINGLES"> F  </i>
   <i type="logical" name="LFERMIGW"> F  </i>
   <i type="logical" name="ODDONLYGW"> F  </i>
   <i type="logical" name="EVENONLYGW"> F  </i>
   <i type="int" name="NKREDLFX">     1</i>
   <i type="int" name="NKREDLFY">     1</i>
   <i type="int" name="NKREDLFZ">     1</i>
   <i type="int" name="MAXMEM">  2800</i>
   <i type="int" name="TELESCOPE">     0</i>
   <i type="int" name="TAUPAR">     1</i>
   <i type="int" name="OMEGAPAR">    -1</i>
   <i name="LAMBDA">      1.00000000</i>
  </separator>
  <separator name="External order field" >
   <i name="OFIELD_KAPPA">      0.00000000</i>
   <v name="OFIELD_K">      0.00000000      0.00000000      0.00000000</v>
   <i name="OFIELD_Q6_NEAR">      0.00000000</i>
   <i name="OFIELD_Q6_FAR">      0.00000000</i>
   <i name="OFIELD_A">      0.00000000</i>
  </separator>
 </parameters>
 <atominfo>
  <atoms>       2 </atoms>
  <types>       2 </types>
  <array name="atoms" >
   <dimension dim="1">ion</dimension>
   <field type="string">element</field>
   <field type="int">atomtype</field>
   <set>
    <rc><c>In</c><c>   1</c></rc>
    <rc><c>As</c><c>   2</c></rc>
   </set>
  </array>
  <array name="atomtypes" >
   <dimension dim="1">type</dimension>
   <field type="int">atomspertype</field>
   <field type="string">element</field>
   <field>mass</field>
   <field>valence</field>
   <field type="string">pseudopotential</field>
   <set>
    <rc><c>   1</c><c>In</c><c>    114.82000000</c><c>      3.00000000</c><c>  PAW_PBE In 08Apr2002                  </c></rc>
    <rc><c>   1</c><c>As</c><c>     74.92200000</c><c>      5.00000000</c><c>  PAW_PBE As 22Sep2009                  </c></rc>
   </set>
  </array>
 </atominfo>
 <structure name="initialpos" >
  <crystal>
   <varray name="basis" >
    <v>       0.00000000       3.02920000       3.02920000 </v>
    <v>       3.02920000       0.00000000       3.02920000 </v>
    <v>       3.02920000       3.02920000       0.00000000 </v>
   </varray>
   <i name="volume">     55.59219731 </i>
   <varray name="rec_basis" >
    <v>      -0.16506008       0.16506008       0.16506008 </v>
    <v>       0.16506008      -0.16506008       0.16506008 </v>
    <v>       0.16506008       0.16506008      -0.16506008 </v>
   </varray>
  </crystal>
  <varray name="positions" >
   <v>       0.00000000       0.00000000       0.00000000 </v>
   <v>       0.25000000       0.25000000       0.25000000 </v>
  </varray>
 </structure>
 <calculation>
  <scstep>
   <time name="total">    1.54    1.54</time>
   <energy>
    <i name="alphaZ">      6.67624893 </i>
    <i name="ewald">   -213.84743004 </i>
    <i name="hartreedc">    -21.29595069 </i>
    <i name="XCdc">    -67.69638858 </i>
    <i name="pawpsdc">    241.28716127 </i>
    <i name="pawaedc">   -161.72347623 </i>
    <i name="eentropy">      0.00000671 </i>
    <i name="bandstr">     -6.29849225 </i>
    <i name="atom">    223.97520926 </i>
    <i name="e_fr_energy">      1.07688839 </i>
    <i name="e_wo_entrp">      1.07688168 </i>
    <i name="e_0_energy">      1.07688615 </i>
   </energy>
  </scstep>
  <scstep>
   <time name="total">    2.77    2.77</time>
   <energy>
    <i name="e_fr_energy">    -14.07373618 </i>
    <i name="e_wo_entrp">    -14.07376494 </i>
    <i name="e_0_energy">    -14.07374576 </i>
   </energy>
  </scstep>
  <scstep>
   <time name="total">    2.78    2.78</time>
   <energy>
    <i name="e_fr_energy">    -14.20847463 </i>
    <i name="e_wo_entrp">    -14.20850148 </i>
    <i name="e_0_energy">    -14.20848358 </i>
   </energy>
  </scstep>
  <scstep>
   <time name="total">    2.76    2.76</time>
   <energy>
    <i name="e_fr_energy">    -14.20939307 </i>
    <i name="e_wo_entrp">    -14.20941991 </i>
    <i name="e_0_energy">    -14.20940202 </i>
   </energy>
  </scstep>
  <scstep>
   <time name="total">    2.82    2.82</time>
   <energy>
    <i name="e_fr_energy">    -14.20940234 </i>
    <i name="e_wo_entrp">    -14.20942918 </i>
    <i name="e_0_energy">    -14.20941129 </i>
   </energy>
  </scstep>
  <scstep>
   <time name="total">    0.28    0.29</time>
   <energy>
    <i name="e_fr_energy">    -10.49898543 </i>
    <i name="e_wo_entrp">    -10.49901227 </i>
    <i name="e_0_energy">    -10.49899437 </i>
   </energy>
  </scstep>
  <scstep>
   <time name="total">    0.27    0.28</time>
   <energy>
    <i name="e_fr_energy">    -11.92128274 </i>
    <i name="e_wo_entrp">    -11.92130958 </i>
    <i name="e_0_energy">    -11.92129169 </i>
   </energy>
  </scstep>
  <scstep>
   <time name="total">    0.27    0.28</time>
   <energy>
    <i name="e_fr_energy">    -12.53836156 </i>
    <i name="e_wo_entrp">    -12.53838840 </i>
    <i name="e_0_energy">    -12.53837050 </i>
   </energy>
  </scstep>
  <scstep>
   <time name="total">    0.27    0.28</time>
   <energy>
    <i name="e_fr_energy">    -12.62500827 </i>
    <i name="e_wo_entrp">    -12.62503511 </i>
    <i name="e_0_energy">    -12.62501722 </i>
   </energy>
  </scstep>
  <scstep>
   <time name="total">    0.27    0.28</time>
   <energy>
    <i name="e_fr_energy">    -12.63286262 </i>
    <i name="e_wo_entrp">    -12.63288947 </i>
    <i name="e_0_energy">    -12.63287157 </i>
   </energy>
  </scstep>
  <scstep>
   <time name="total">    0.27    0.28</time>
   <energy>
    <i name="e_fr_energy">    -12.64682378 </i>
    <i name="e_wo_entrp">    -12.64685062 </i>
    <i name="e_0_energy">    -12.64683272 </i>
   </energy>
  </scstep>
  <scstep>
   <time name="total">    0.27    0.28</time>
   <energy>
    <i name="e_fr_energy">    -12.65463427 </i>
    <i name="e_wo_entrp">    -12.65466111 </i>
    <i name="e_0_energy">    -12.65464321 </i>
   </energy>
  </scstep>
  <scstep>
   <time name="total">    0.27    0.28</time>
   <energy>
    <i name="e_fr_energy">    -12.65674241 </i>
    <i name="e_wo_entrp">    -12.65676925 </i>
    <i name="e_0_energy">    -12.65675136 </i>
   </energy>
  </scstep>
  <scstep>
   <time name="total">    0.27    0.28</time>
   <energy>
    <i name="e_fr_energy">    -12.65755738 </i>
    <i name="e_wo_entrp">    -12.65758423 </i>
    <i name="e_0_energy">    -12.65756633 </i>
   </energy>
  </scstep>
  <scstep>
   <time name="total">    0.27    0.28</time>
   <energy>
    <i name="e_fr_energy">    -12.65806416 </i>
    <i name="e_wo_entrp">    -12.65809100 </i>
    <i name="e_0_energy">    -12.65807311 </i>
   </energy>
  </scstep>
  <scstep>
   <time name="total">    0.27    0.28</time>
   <energy>
    <i name="e_fr_energy">    -12.65824257 </i>
    <i name="e_wo_entrp">    -12.65826942 </i>
    <i name="e_0_energy">    -12.65825152 </i>
   </energy>
  </scstep>
  <scstep>
   <time name="total">    0.42    0.43</time>
   <energy>
    <i name="alphaZ">      6.67624893 </i>
    <i name="ewald">   -213.84743004 </i>
    <i name="hartreedc">    -28.15143968 </i>
    <i name="XCdc">    -66.61349620 </i>
    <i name="pawpsdc">    530.38898785 </i>
    <i name="pawaedc">   -452.79274326 </i>
    <i name="eentropy">      0.00002684 </i>
    <i name="bandstr">    -12.29363230 </i>
    <i name="atom">    223.97520926 </i>
    <i name="e_fr_energy">    -12.65826859 </i>
    <i name="e_wo_entrp">    -12.65829544 </i>
    <i name="e_0_energy">    -12.65827754 </i>
   </energy>
  </scstep>
  <structure>
   <crystal>
    <varray name="basis" >
     <v>       0.00000000       3.02920000       3.02920000 </v>
     <v>       3.02920000       0.00000000       3.02920000 </v>
     <v>       3.02920000       3.02920000       0.00000000 </v>
    </varray>
    <i name="volume">     55.59219731 </i>
    <varray name="rec_basis" >
     <v>      -0.16506008       0.16506008       0.16506008 </v>
     <v>       0.16506008      -0.16506008       0.16506008 </v>
     <v>       0.16506008       0.16506008      -0.16506008 </v>
    </varray>
   </crystal>
   <varray name="positions" >
    <v>       0.00000000       0.00000000       0.00000000 </v>
    <v>       0.25000000       0.25000000       0.25000000 </v>
   </varray>
  </structure>
  <varray name="forces" >
   <v>      -0.00000000      -0.00000000      -0.00000000 </v>
   <v>       0.00000000       0.00000000       0.00000000 </v>
  </varray>
  <varray name="stress" >
   <v>      37.69148754      -0.00000000       0.00000000 </v>
   <v>       0.00000000      37.69148754       0.00000000 </v>
   <v>      -0.00000000       0.00000000      37.69148754 </v>
  </varray>
  <energy>
   <i name="e_fr_energy">    -12.65826859 </i>
   <i name="e_wo_entrp">    -12.65827754 </i>
   <i name="e_0_energy">      0.00002684 </i>
  </energy>
  <time name="totalsc">   16.68   17.13</time>
  <eigenvalues>
   <array>
    <dimension dim="1">band</dimension>
    <dimension dim="2">kpoint</dimension>
    <dimension dim="3">spin</dimension>
    <field>eigene</field>
    <field>occ</field>
    <set>
     <set comment="spin 1">
      <set comment="kpoint 1">
       <r>   -8.1709    1.0000 </r>
       <r>   -8.1709    1.0000 </r>
       <r>    2.6549    1.0000 </r>
       <r>    2.6549    1.0000 </r>
       <r>    2.9289    1.0000 </r>
       <r>    2.9289    1.0000 </r>
       <r>    2.9289    1.0000 </r>
       <r>    2.9289    1.0000 </r>
       <r>    3.2491   -0.0000 </r>
       <r>    3.2491   -0.0000 </r>
       <r>    7.2475    0.0000 </r>
       <r>    7.2475    0.0000 </r>
       <r>    7.7455    0.0000 </r>
       <r>    7.7455    0.0000 </r>
       <r>    7.7455    0.0000 </r>
       <r>    7.7455    0.0000 </r>
       <r>   10.7426    0.0000 </r>
       <r>   10.7426    0.0000 </r>
       <r>   12.8609    0.0000 </r>
       <r>   12.8609    0.0000 </r>
       <r>   12.8609    0.0000 </r>
       <r>   12.8609    0.0000 </r>
       <r>   13.6108    0.0000 </r>
       <r>   13.6108    0.0000 </r>
       <r>   13.6415    0.0000 </r>
       <r>   13.6415    0.0000 </r>
       <r>   13.6415    0.0000 </r>
       <r>   13.6415    0.0000 </r>
       <r>   16.1845    0.0000 </r>
       <r>   16.1845    0.0000 </r>
       <r>   24.4106    0.0000 </r>
       <r>   24.4106    0.0000 </r>
       <r>   24.4106    0.0000 </r>
       <r>   24.4106    0.0000 </r>
       <r>   24.5610    0.0000 </r>
       <r>   24.5610    0.0000 </r>
       <r>   25.7742    0.0000 </r>
       <r>   25.7742    0.0000 </r>
       <r>   25.7940    0.0000 </r>
       <r>   25.7940    0.0000 </r>
       <r>   25.7940    0.0000 </r>
       <r>   25.7940    0.0000 </r>
       <r>   25.8877    0.0000 </r>
       <r>   25.8877    0.0000 </r>
       <r>   25.8877    0.0000 </r>
       <r>   25.8877    0.0000 </r>
       <r>   25.8877    0.0000 </r>
       <r>   25.8877    0.0000 </r>
       <r>   26.2335    0.0000 </r>
       <r>   26.2335    0.0000 </r>
       <r>   26.2335    0.0000 </r>
       <r>   26.2335    0.0000 </r>
       <r>   33.4055    0.0000 </r>
       <r>   33.4764    0.0000 </r>
       <r>   33.5392    0.0000 </r>
       <r>   33.8276    0.0000 </r>
      </set>
      <set comment="kpoint 2">
       <r>   -7.9109    1.0000 </r>
       <r>   -7.9109    1.0000 </r>
       <r>    0.6721    1.0000 </r>
       <r>    0.6721    1.0000 </r>
       <r>    2.4940    1.0000 </r>
       <r>    2.4940    1.0000 </r>
       <r>    2.6823    1.0000 </r>
       <r>    2.6900    1.0000 </r>
       <r>    4.5194    0.0000 </r>
       <r>    4.5194    0.0000 </r>
       <r>    7.5608    0.0000 </r>
       <r>    7.5608    0.0000 </r>
       <r>    7.8811    0.0000 </r>
       <r>    7.8811    0.0000 </r>
       <r>    8.1108    0.0000 </r>
       <r>    8.1115    0.0000 </r>
       <r>   11.8035    0.0000 </r>
       <r>   11.8333    0.0000 </r>
       <r>   11.8333    0.0000 </r>
       <r>   11.8745    0.0000 </r>
       <r>   11.8753    0.0000 </r>
       <r>   11.8753    0.0000 </r>
       <r>   13.2967    0.0000 </r>
       <r>   13.2967    0.0000 </r>
       <r>   15.6473    0.0000 </r>
       <r>   15.6615    0.0000 </r>
       <r>   15.6615    0.0000 </r>
       <r>   15.7238    0.0000 </r>
       <r>   18.1214    0.0000 </r>
       <r>   18.1214    0.0000 </r>
       <r>   21.3372    0.0000 </r>
       <r>   21.3372    0.0000 </r>
       <r>   21.4761    0.0000 </r>
       <r>   21.5243    0.0000 </r>
       <r>   21.8520    0.0000 </r>
       <r>   21.8520    0.0000 </r>
       <r>   25.0131    0.0000 </r>
       <r>   25.1006    0.0000 </r>
       <r>   25.2409    0.0000 </r>
       <r>   25.2409    0.0000 </r>
       <r>   26.0529    0.0000 </r>
       <r>   26.0529    0.0000 </r>
       <r>   26.1109    0.0000 </r>
       <r>   26.1109    0.0000 </r>
       <r>   26.2286    0.0000 </r>
       <r>   26.2538    0.0000 </r>
       <r>   27.2395    0.0000 </r>
       <r>   27.2395    0.0000 </r>
       <r>   29.8121    0.0000 </r>
       <r>   29.8135    0.0000 </r>
       <r>   29.8832    0.0000 </r>
       <r>   29.9251    0.0000 </r>
       <r>   30.6324    0.0000 </r>
       <r>   30.6550    0.0000 </r>
       <r>   31.9807    0.0000 </r>
       <r>   32.1591    0.0000 </r>
      </set>
      <set comment="kpoint 3">
       <r>   -7.2398    1.0000 </r>
       <r>   -7.2398    1.0000 </r>
       <r>   -1.5284    1.0000 </r>
       <r>   -1.5284    1.0000 </r>
       <r>    2.0861    1.0000 </r>
       <r>    2.0861    1.0000 </r>
       <r>    2.2886    1.0000 </r>
       <r>    2.2951    1.0000 </r>
       <r>    4.4692    0.0000 </r>
       <r>    4.4692    0.0000 </r>
       <r>    8.0969    0.0000 </r>
       <r>    8.0969    0.0000 </r>
       <r>    8.3329    0.0000 </r>
       <r>    8.3337    0.0000 </r>
       <r>    9.1612    0.0000 </r>
       <r>    9.1612    0.0000 </r>
       <r>   11.4206    0.0000 </r>
       <r>   11.4206    0.0000 </r>
       <r>   12.3001    0.0000 </r>
       <r>   12.3001    0.0000 </r>
       <r>   12.3423    0.0000 </r>
       <r>   12.4073    0.0000 </r>
       <r>   16.1124    0.0000 </r>
       <r>   16.1124    0.0000 </r>
       <r>   17.7038    0.0000 </r>
       <r>   17.7038    0.0000 </r>
       <r>   17.7850    0.0000 </r>
       <r>   17.8741    0.0000 </r>
       <r>   18.5161    0.0000 </r>
       <r>   18.5161    0.0000 </r>
       <r>   18.7750    0.0000 </r>
       <r>   18.7750    0.0000 </r>
       <r>   18.7860    0.0000 </r>
       <r>   18.8241    0.0000 </r>
       <r>   21.7894    0.0000 </r>
       <r>   21.7894    0.0000 </r>
       <r>   25.0274    0.0000 </r>
       <r>   25.2141    0.0000 </r>
       <r>   25.2415    0.0000 </r>
       <r>   25.2415    0.0000 </r>
       <r>   25.5973    0.0000 </r>
       <r>   25.5973    0.0000 </r>
       <r>   26.3956    0.0000 </r>
       <r>   26.4093    0.0000 </r>
       <r>   26.4093    0.0000 </r>
       <r>   26.4917    0.0000 </r>
       <r>   26.6576    0.0000 </r>
       <r>   26.6576    0.0000 </r>
       <r>   27.5258    0.0000 </r>
       <r>   27.5259    0.0000 </r>
       <r>   27.6274    0.0000 </r>
       <r>   27.6370    0.0000 </r>
       <r>   29.0693    0.0000 </r>
       <r>   29.0708    0.0000 </r>
       <r>   31.2489    0.0000 </r>
       <r>   31.4133    0.0000 </r>
      </set>
      <set comment="kpoint 4">
       <r>   -6.7540    1.0000 </r>
       <r>   -6.7540    1.0000 </r>
       <r>   -2.5670    1.0000 </r>
       <r>   -2.5670    1.0000 </r>
       <r>    1.9147    1.0000 </r>
       <r>    1.9147    1.0000 </r>
       <r>    2.1251    1.0000 </r>
       <r>    2.1251    1.0000 </r>
       <r>    4.3142   -0.0000 </r>
       <r>    4.3142   -0.0000 </r>
       <r>    8.0524    0.0000 </r>
       <r>    8.0524    0.0000 </r>
       <r>    8.2391    0.0000 </r>
       <r>    8.2391    0.0000 </r>
       <r>    9.8664    0.0000 </r>
       <r>    9.8664    0.0000 </r>
       <r>   12.0512    0.0000 </r>
       <r>   12.0512    0.0000 </r>
       <r>   13.9740    0.0000 </r>
       <r>   13.9740    0.0000 </r>
       <r>   14.1558    0.0000 </r>
       <r>   14.1558    0.0000 </r>
       <r>   15.1667    0.0000 </r>
       <r>   15.1667    0.0000 </r>
       <r>   15.2583    0.0000 </r>
       <r>   15.2583    0.0000 </r>
       <r>   15.2612    0.0000 </r>
       <r>   15.2612    0.0000 </r>
       <r>   20.8325    0.0000 </r>
       <r>   20.8325    0.0000 </r>
       <r>   21.8697    0.0000 </r>
       <r>   21.8697    0.0000 </r>
       <r>   21.9779    0.0000 </r>
       <r>   21.9779    0.0000 </r>
       <r>   22.0081    0.0000 </r>
       <r>   22.0081    0.0000 </r>
       <r>   22.7358    0.0000 </r>
       <r>   22.7358    0.0000 </r>
       <r>   22.7561    0.0000 </r>
       <r>   22.7561    0.0000 </r>
       <r>   25.3080    0.0000 </r>
       <r>   25.3080    0.0000 </r>
       <r>   26.0550    0.0000 </r>
       <r>   26.0550    0.0000 </r>
       <r>   26.2582    0.0000 </r>
       <r>   26.2582    0.0000 </r>
       <r>   26.7784    0.0000 </r>
       <r>   26.7785    0.0000 </r>
       <r>   26.9312    0.0000 </r>
       <r>   26.9313    0.0000 </r>
       <r>   27.0145    0.0000 </r>
       <r>   27.0153    0.0000 </r>
       <r>   27.0288    0.0000 </r>
       <r>   27.0291    0.0000 </r>
       <r>   30.4515    0.0000 </r>
       <r>   30.5944    0.0000 </r>
      </set>
      <set comment="kpoint 5">
       <r>   -7.2398    1.0000 </r>
       <r>   -7.2398    1.0000 </r>
       <r>   -1.5284    1.0000 </r>
       <r>   -1.5284    1.0000 </r>
       <r>    2.0861    1.0000 </r>
       <r>    2.0861    1.0000 </r>
       <r>    2.2886    1.0000 </r>
       <r>    2.2951    1.0000 </r>
       <r>    4.4692    0.0000 </r>
       <r>    4.4692    0.0000 </r>
       <r>    8.0969    0.0000 </r>
       <r>    8.0969    0.0000 </r>
       <r>    8.3329    0.0000 </r>
       <r>    8.3337    0.0000 </r>
       <r>    9.1612    0.0000 </r>
       <r>    9.1612    0.0000 </r>
       <r>   11.4206    0.0000 </r>
       <r>   11.4206    0.0000 </r>
       <r>   12.3001    0.0000 </r>
       <r>   12.3001    0.0000 </r>
       <r>   12.3423    0.0000 </r>
       <r>   12.4073    0.0000 </r>
       <r>   16.1124    0.0000 </r>
       <r>   16.1124    0.0000 </r>
       <r>   17.7038    0.0000 </r>
       <r>   17.7038    0.0000 </r>
       <r>   17.7850    0.0000 </r>
       <r>   17.8741    0.0000 </r>
       <r>   18.5161    0.0000 </r>
       <r>   18.5161    0.0000 </r>
       <r>   18.7750    0.0000 </r>
       <r>   18.7750    0.0000 </r>
       <r>   18.7860    0.0000 </r>
       <r>   18.8241    0.0000 </r>
       <r>   21.7894    0.0000 </r>
       <r>   21.7894    0.0000 </r>
       <r>   25.0274    0.0000 </r>
       <r>   25.2141    0.0000 </r>
       <r>   25.2415    0.0000 </r>
       <r>   25.2415    0.0000 </r>
       <r>   25.5973    0.0000 </r>
       <r>   25.5973    0.0000 </r>
       <r>   26.3956    0.0000 </r>
       <r>   26.4093    0.0000 </r>
       <r>   26.4093    0.0000 </r>
       <r>   26.4917    0.0000 </r>
       <r>   26.6576    0.0000 </r>
       <r>   26.6576    0.0000 </r>
       <r>   27.5258    0.0000 </r>
       <r>   27.5258    0.0000 </r>
       <r>   27.6274    0.0000 </r>
       <r>   27.6370    0.0000 </r>
       <r>   29.0693    0.0000 </r>
       <r>   29.0724    0.0000 </r>
       <r>   31.2259    0.0000 </r>
       <r>   31.3367    0.0000 </r>
      </set>
      <set comment="kpoint 6">
       <r>   -7.9109    1.0000 </r>
       <r>   -7.9109    1.0000 </r>
       <r>    0.6721    1.0000 </r>
       <r>    0.6721    1.0000 </r>
       <r>    2.4940    1.0000 </r>
       <r>    2.4940    1.0000 </r>
       <r>    2.6823    1.0000 </r>
       <r>    2.6900    1.0000 </r>
       <r>    4.5194    0.0000 </r>
       <r>    4.5194    0.0000 </r>
       <r>    7.5608    0.0000 </r>
       <r>    7.5608    0.0000 </r>
       <r>    7.8811    0.0000 </r>
       <r>    7.8811    0.0000 </r>
       <r>    8.1108    0.0000 </r>
       <r>    8.1115    0.0000 </r>
       <r>   11.8035    0.0000 </r>
       <r>   11.8333    0.0000 </r>
       <r>   11.8333    0.0000 </r>
       <r>   11.8745    0.0000 </r>
       <r>   11.8753    0.0000 </r>
       <r>   11.8753    0.0000 </r>
       <r>   13.2967    0.0000 </r>
       <r>   13.2967    0.0000 </r>
       <r>   15.6473    0.0000 </r>
       <r>   15.6615    0.0000 </r>
       <r>   15.6615    0.0000 </r>
       <r>   15.7238    0.0000 </r>
       <r>   18.1214    0.0000 </r>
       <r>   18.1214    0.0000 </r>
       <r>   21.3372    0.0000 </r>
       <r>   21.3372    0.0000 </r>
       <r>   21.4761    0.0000 </r>
       <r>   21.5243    0.0000 </r>
       <r>   21.8520    0.0000 </r>
       <r>   21.8520    0.0000 </r>
       <r>   25.0131    0.0000 </r>
       <r>   25.1006    0.0000 </r>
       <r>   25.2409    0.0000 </r>
       <r>   25.2409    0.0000 </r>
       <r>   26.0529    0.0000 </r>
       <r>   26.0529    0.0000 </r>
       <r>   26.1109    0.0000 </r>
       <r>   26.1109    0.0000 </r>
       <r>   26.2286    0.0000 </r>
       <r>   26.2538    0.0000 </r>
       <r>   27.2395    0.0000 </r>
       <r>   27.2395    0.0000 </r>
       <r>   29.8129    0.0000 </r>
       <r>   29.8184    0.0000 </r>
       <r>   29.8820    0.0000 </r>
       <r>   29.9268    0.0000 </r>
       <r>   30.6319    0.0000 </r>
       <r>   30.6424    0.0000 </r>
       <r>   32.0250    0.0000 </r>
       <r>   32.1184    0.0000 </r>
      </set>
      <set comment="kpoint 7">
       <r>   -7.8223    1.0000 </r>
       <r>   -7.8223    1.0000 </r>
       <r>    0.6212    1.0000 </r>
       <r>    0.6212    1.0000 </r>
       <r>    2.1067    1.0000 </r>
       <r>    2.1067    1.0000 </r>
       <r>    2.2109    1.0000 </r>
       <r>    2.2109    1.0000 </r>
       <r>    5.2598    0.0000 </r>
       <r>    5.2598    0.0000 </r>
       <r>    6.4613    0.0000 </r>
       <r>    6.4613    0.0000 </r>
       <r>    8.5281    0.0000 </r>
       <r>    8.5281    0.0000 </r>
       <r>    8.7716    0.0000 </r>
       <r>    8.7716    0.0000 </r>
       <r>   10.3645    0.0000 </r>
       <r>   10.3645    0.0000 </r>
       <r>   12.7799    0.0000 </r>
       <r>   12.7799    0.0000 </r>
       <r>   13.1666    0.0000 </r>
       <r>   13.1666    0.0000 </r>
       <r>   14.4558    0.0000 </r>
       <r>   14.4558    0.0000 </r>
       <r>   14.4958    0.0000 </r>
       <r>   14.4958    0.0000 </r>
       <r>   15.1680    0.0000 </r>
       <r>   15.1680    0.0000 </r>
       <r>   19.2198    0.0000 </r>
       <r>   19.2198    0.0000 </r>
       <r>   21.0765    0.0000 </r>
       <r>   21.0765    0.0000 </r>
       <r>   21.2733    0.0000 </r>
       <r>   21.2733    0.0000 </r>
       <r>   21.8847    0.0000 </r>
       <r>   21.8847    0.0000 </r>
       <r>   22.5983    0.0000 </r>
       <r>   22.5983    0.0000 </r>
       <r>   25.1822    0.0000 </r>
       <r>   25.1822    0.0000 </r>
       <r>   25.7882    0.0000 </r>
       <r>   25.7882    0.0000 </r>
       <r>   25.9677    0.0000 </r>
       <r>   25.9678    0.0000 </r>
       <r>   27.1401    0.0000 </r>
       <r>   27.1402    0.0000 </r>
       <r>   29.4021    0.0000 </r>
       <r>   29.4168    0.0000 </r>
       <r>   29.4943    0.0000 </r>
       <r>   29.5170    0.0000 </r>
       <r>   30.2486    0.0000 </r>
       <r>   30.2846    0.0000 </r>
       <r>   30.3189    0.0000 </r>
       <r>   30.3732    0.0000 </r>
       <r>   31.1941    0.0000 </r>
       <r>   31.8775    0.0000 </r>
      </set>
      <set comment="kpoint 8">
       <r>   -7.2757    1.0000 </r>
       <r>   -7.2716    1.0000 </r>
       <r>   -1.0342    1.0000 </r>
       <r>   -1.0334    1.0000 </r>
       <r>    1.4945    1.0000 </r>
       <r>    1.5276    1.0000 </r>
       <r>    1.7445    1.0000 </r>
       <r>    1.7465    1.0000 </r>
       <r>    5.5524    0.0000 </r>
       <r>    5.5792    0.0000 </r>
       <r>    6.8082    0.0000 </r>
       <r>    6.8587    0.0000 </r>
       <r>    8.7263    0.0000 </r>
       <r>    8.7585    0.0000 </r>
       <r>    9.2491    0.0000 </r>
       <r>    9.2578    0.0000 </r>
       <r>   11.1121    0.0000 </r>
       <r>   11.1247    0.0000 </r>
       <r>   13.2980    0.0000 </r>
       <r>   13.3308    0.0000 </r>
       <r>   13.3567    0.0000 </r>
       <r>   13.3922    0.0000 </r>
       <r>   15.5891    0.0000 </r>
       <r>   15.6142    0.0000 </r>
       <r>   16.7316    0.0000 </r>
       <r>   16.7742    0.0000 </r>
       <r>   17.7363    0.0000 </r>
       <r>   17.7385    0.0000 </r>
       <r>   17.9803    0.0000 </r>
       <r>   18.0081    0.0000 </r>
       <r>   18.1157    0.0000 </r>
       <r>   18.1291    0.0000 </r>
       <r>   21.4132    0.0000 </r>
       <r>   21.5418    0.0000 </r>
       <r>   21.9942    0.0000 </r>
       <r>   22.0413    0.0000 </r>
       <r>   22.3668    0.0000 </r>
       <r>   22.3708    0.0000 </r>
       <r>   23.1242    0.0000 </r>
       <r>   23.1478    0.0000 </r>
       <r>   25.5987    0.0000 </r>
       <r>   25.6452    0.0000 </r>
       <r>   25.9621    0.0000 </r>
       <r>   25.9731    0.0000 </r>
       <r>   26.6748    0.0000 </r>
       <r>   26.6779    0.0000 </r>
       <r>   28.1223    0.0000 </r>
       <r>   28.1923    0.0000 </r>
       <r>   28.5884    0.0000 </r>
       <r>   28.6007    0.0000 </r>
       <r>   29.4651    0.0000 </r>
       <r>   29.4772    0.0000 </r>
       <r>   29.8566    0.0000 </r>
       <r>   30.0416    0.0000 </r>
       <r>   30.2056    0.0000 </r>
       <r>   30.5039    0.0000 </r>
      </set>
      <set comment="kpoint 9">
       <r>   -6.6459    1.0000 </r>
       <r>   -6.6333    1.0000 </r>
       <r>   -2.3898    1.0000 </r>
       <r>   -2.3720    1.0000 </r>
       <r>    0.8897    1.0000 </r>
       <r>    0.9159    1.0000 </r>
       <r>    1.6615    1.0000 </r>
       <r>    1.6656    1.0000 </r>
       <r>    5.4394    0.0000 </r>
       <r>    5.4524    0.0000 </r>
       <r>    7.5085    0.0000 </r>
       <r>    7.5475    0.0000 </r>
       <r>    8.9846    0.0000 </r>
       <r>    8.9955    0.0000 </r>
       <r>    9.5956    0.0000 </r>
       <r>    9.6808    0.0000 </r>
       <r>   12.0402    0.0000 </r>
       <r>   12.1576    0.0000 </r>
       <r>   13.5639    0.0000 </r>
       <r>   13.6012    0.0000 </r>
       <r>   14.1469    0.0000 </r>
       <r>   14.1784    0.0000 </r>
       <r>   15.1108    0.0000 </r>
       <r>   15.1843    0.0000 </r>
       <r>   15.5425    0.0000 </r>
       <r>   15.5706    0.0000 </r>
       <r>   18.3478    0.0000 </r>
       <r>   18.4807    0.0000 </r>
       <r>   19.8068    0.0000 </r>
       <r>   19.8610    0.0000 </r>
       <r>   20.0316    0.0000 </r>
       <r>   20.0744    0.0000 </r>
       <r>   21.0465    0.0000 </r>
       <r>   21.0477    0.0000 </r>
       <r>   22.0139    0.0000 </r>
       <r>   22.0372    0.0000 </r>
       <r>   22.4993    0.0000 </r>
       <r>   22.5597    0.0000 </r>
       <r>   23.4186    0.0000 </r>
       <r>   23.4233    0.0000 </r>
       <r>   24.1731    0.0000 </r>
       <r>   24.3069    0.0000 </r>
       <r>   25.2071    0.0000 </r>
       <r>   25.2414    0.0000 </r>
       <r>   25.8541    0.0000 </r>
       <r>   25.8587    0.0000 </r>
       <r>   26.3632    0.0000 </r>
       <r>   26.4290    0.0000 </r>
       <r>   26.9266    0.0000 </r>
       <r>   27.0451    0.0000 </r>
       <r>   28.1081    0.0000 </r>
       <r>   28.1894    0.0000 </r>
       <r>   28.5006    0.0000 </r>
       <r>   28.5993    0.0000 </r>
       <r>   29.2709    0.0000 </r>
       <r>   29.8787    0.0000 </r>
      </set>
      <set comment="kpoint 10">
       <r>   -6.8231    1.0000 </r>
       <r>   -6.8118    1.0000 </r>
       <r>   -2.0512    1.0000 </r>
       <r>   -2.0339    1.0000 </r>
       <r>    0.7463    1.0000 </r>
       <r>    0.7662    1.0000 </r>
       <r>    1.9863    1.0000 </r>
       <r>    1.9938    1.0000 </r>
       <r>    5.5124    0.0000 </r>
       <r>    5.5384    0.0000 </r>
       <r>    7.7974    0.0000 </r>
       <r>    7.8239    0.0000 </r>
       <r>    8.6613    0.0000 </r>
       <r>    8.6708    0.0000 </r>
       <r>    9.3106    0.0000 </r>
       <r>    9.3767    0.0000 </r>
       <r>   11.8716    0.0000 </r>
       <r>   11.8977    0.0000 </r>
       <r>   12.6441    0.0000 </r>
       <r>   12.7608    0.0000 </r>
       <r>   13.8745    0.0000 </r>
       <r>   13.9607    0.0000 </r>
       <r>   15.1588    0.0000 </r>
       <r>   15.2709    0.0000 </r>
       <r>   17.1068    0.0000 </r>
       <r>   17.1331    0.0000 </r>
       <r>   18.2011    0.0000 </r>
       <r>   18.2383    0.0000 </r>
       <r>   18.3890    0.0000 </r>
       <r>   18.4343    0.0000 </r>
       <r>   19.7543    0.0000 </r>
       <r>   19.7742    0.0000 </r>
       <r>   21.3029    0.0000 </r>
       <r>   21.3570    0.0000 </r>
       <r>   22.5242    0.0000 </r>
       <r>   22.5532    0.0000 </r>
       <r>   22.7537    0.0000 </r>
       <r>   22.9274    0.0000 </r>
       <r>   23.8269    0.0000 </r>
       <r>   23.9485    0.0000 </r>
       <r>   24.2096    0.0000 </r>
       <r>   24.2472    0.0000 </r>
       <r>   24.4879    0.0000 </r>
       <r>   24.5171    0.0000 </r>
       <r>   26.1849    0.0000 </r>
       <r>   26.2564    0.0000 </r>
       <r>   26.4745    0.0000 </r>
       <r>   26.5459    0.0000 </r>
       <r>   27.0011    0.0000 </r>
       <r>   27.0153    0.0000 </r>
       <r>   28.1116    0.0000 </r>
       <r>   28.1247    0.0000 </r>
       <r>   28.6166    0.0000 </r>
       <r>   28.6621    0.0000 </r>
       <r>   30.4627    0.0000 </r>
       <r>   30.8471    0.0000 </r>
      </set>
      <set comment="kpoint 11">
       <r>   -7.5066    1.0000 </r>
       <r>   -7.5030    1.0000 </r>
       <r>   -0.5183    1.0000 </r>
       <r>   -0.5182    1.0000 </r>
       <r>    1.3625    1.0000 </r>
       <r>    1.3860    1.0000 </r>
       <r>    2.4743    1.0000 </r>
       <r>    2.4846    1.0000 </r>
       <r>    5.3835    0.0000 </r>
       <r>    5.4229    0.0000 </r>
       <r>    7.5027    0.0000 </r>
       <r>    7.6772    0.0000 </r>
       <r>    8.1436    0.0000 </r>
       <r>    8.2052    0.0000 </r>
       <r>    8.4779    0.0000 </r>
       <r>    8.5450    0.0000 </r>
       <r>   10.9756    0.0000 </r>
       <r>   11.0089    0.0000 </r>
       <r>   12.4075    0.0000 </r>
       <r>   12.4089    0.0000 </r>
       <r>   13.3687    0.0000 </r>
       <r>   13.4069    0.0000 </r>
       <r>   14.5078    0.0000 </r>
       <r>   14.5443    0.0000 </r>
       <r>   15.9307    0.0000 </r>
       <r>   16.0090    0.0000 </r>
       <r>   17.6255    0.0000 </r>
       <r>   17.7269    0.0000 </r>
       <r>   18.2315    0.0000 </r>
       <r>   18.2817    0.0000 </r>
       <r>   20.3047    0.0000 </r>
       <r>   20.3457    0.0000 </r>
       <r>   21.4322    0.0000 </r>
       <r>   21.4880    0.0000 </r>
       <r>   21.7230    0.0000 </r>
       <r>   21.7276    0.0000 </r>
       <r>   21.9093    0.0000 </r>
       <r>   21.9618    0.0000 </r>
       <r>   23.1316    0.0000 </r>
       <r>   23.2482    0.0000 </r>
       <r>   25.9115    0.0000 </r>
       <r>   25.9971    0.0000 </r>
       <r>   26.4177    0.0000 </r>
       <r>   26.4380    0.0000 </r>
       <r>   27.2615    0.0000 </r>
       <r>   27.3762    0.0000 </r>
       <r>   28.2841    0.0000 </r>
       <r>   28.3070    0.0000 </r>
       <r>   29.3844    0.0000 </r>
       <r>   29.4401    0.0000 </r>
       <r>   29.7217    0.0000 </r>
       <r>   29.7653    0.0000 </r>
       <r>   30.4711    0.0000 </r>
       <r>   30.6202    0.0000 </r>
       <r>   31.2083    0.0000 </r>
       <r>   31.3202    0.0000 </r>
      </set>
      <set comment="kpoint 12">
       <r>   -6.8909    1.0000 </r>
       <r>   -6.8909    1.0000 </r>
       <r>   -1.5773    1.0000 </r>
       <r>   -1.5773    1.0000 </r>
       <r>    1.1862    1.0000 </r>
       <r>    1.1862    1.0000 </r>
       <r>    1.2253    1.0000 </r>
       <r>    1.2253    1.0000 </r>
       <r>    5.2454    0.0000 </r>
       <r>    5.2454    0.0000 </r>
       <r>    5.7894    0.0000 </r>
       <r>    5.7894    0.0000 </r>
       <r>   10.4813    0.0000 </r>
       <r>   10.4813    0.0000 </r>
       <r>   10.6789    0.0000 </r>
       <r>   10.6789    0.0000 </r>
       <r>   10.8607    0.0000 </r>
       <r>   10.8607    0.0000 </r>
       <r>   14.0493    0.0000 </r>
       <r>   14.0493    0.0000 </r>
       <r>   15.6800    0.0000 </r>
       <r>   15.6800    0.0000 </r>
       <r>   16.7986    0.0000 </r>
       <r>   16.7986    0.0000 </r>
       <r>   16.8720    0.0000 </r>
       <r>   16.8720    0.0000 </r>
       <r>   17.4191    0.0000 </r>
       <r>   17.4191    0.0000 </r>
       <r>   17.6111    0.0000 </r>
       <r>   17.6111    0.0000 </r>
       <r>   17.7789    0.0000 </r>
       <r>   17.7789    0.0000 </r>
       <r>   18.7606    0.0000 </r>
       <r>   18.7606    0.0000 </r>
       <r>   19.4721    0.0000 </r>
       <r>   19.4721    0.0000 </r>
       <r>   24.3696    0.0000 </r>
       <r>   24.3696    0.0000 </r>
       <r>   24.7566    0.0000 </r>
       <r>   24.7566    0.0000 </r>
       <r>   24.8518    0.0000 </r>
       <r>   24.8518    0.0000 </r>
       <r>   24.8919    0.0000 </r>
       <r>   24.8919    0.0000 </r>
       <r>   26.3956    0.0000 </r>
       <r>   26.3956    0.0000 </r>
       <r>   26.5307    0.0000 </r>
       <r>   26.5307    0.0000 </r>
       <r>   27.4136    0.0000 </r>
       <r>   27.4136    0.0000 </r>
       <r>   27.5560    0.0000 </r>
       <r>   27.5560    0.0000 </r>
       <r>   28.4431    0.0000 </r>
       <r>   28.4432    0.0000 </r>
       <r>   31.5350    0.0000 </r>
       <r>   31.7092    0.0000 </r>
      </set>
      <set comment="kpoint 13">
       <r>   -6.3507    1.0000 </r>
       <r>   -6.3356    1.0000 </r>
       <r>   -2.4470    1.0000 </r>
       <r>   -2.4269    1.0000 </r>
       <r>    0.3912    1.0000 </r>
       <r>    0.4195    1.0000 </r>
       <r>    1.0759    1.0000 </r>
       <r>    1.0789    1.0000 </r>
       <r>    5.3536    0.0000 </r>
       <r>    5.3576    0.0000 </r>
       <r>    6.4101    0.0000 </r>
       <r>    6.4162    0.0000 </r>
       <r>   10.1296    0.0000 </r>
       <r>   10.2125    0.0000 </r>
       <r>   10.9363    0.0000 </r>
       <r>   10.9550    0.0000 </r>
       <r>   12.1854    0.0000 </r>
       <r>   12.3070    0.0000 </r>
       <r>   14.5410    0.0000 </r>
       <r>   14.5783    0.0000 </r>
       <r>   15.2446    0.0000 </r>
       <r>   15.3784    0.0000 </r>
       <r>   15.8208    0.0000 </r>
       <r>   15.8248    0.0000 </r>
       <r>   16.4071    0.0000 </r>
       <r>   16.4488    0.0000 </r>
       <r>   18.0988    0.0000 </r>
       <r>   18.1305    0.0000 </r>
       <r>   18.6734    0.0000 </r>
       <r>   18.7463    0.0000 </r>
       <r>   19.5473    0.0000 </r>
       <r>   19.5665    0.0000 </r>
       <r>   19.8809    0.0000 </r>
       <r>   19.9283    0.0000 </r>
       <r>   20.7951    0.0000 </r>
       <r>   20.8206    0.0000 </r>
       <r>   21.3762    0.0000 </r>
       <r>   21.4681    0.0000 </r>
       <r>   23.1299    0.0000 </r>
       <r>   23.1625    0.0000 </r>
       <r>   23.2774    0.0000 </r>
       <r>   23.3848    0.0000 </r>
       <r>   23.9819    0.0000 </r>
       <r>   24.0600    0.0000 </r>
       <r>   25.6674    0.0000 </r>
       <r>   25.7388    0.0000 </r>
       <r>   26.1660    0.0000 </r>
       <r>   26.1687    0.0000 </r>
       <r>   27.4013    0.0000 </r>
       <r>   27.4268    0.0000 </r>
       <r>   27.9556    0.0000 </r>
       <r>   28.0071    0.0000 </r>
       <r>   29.4669    0.0000 </r>
       <r>   29.5820    0.0000 </r>
       <r>   29.8359    0.0000 </r>
       <r>   30.7850    0.0000 </r>
      </set>
      <set comment="kpoint 14">
       <r>   -6.3154    1.0000 </r>
       <r>   -6.2913    1.0000 </r>
       <r>   -2.4862    1.0000 </r>
       <r>   -2.4477    1.0000 </r>
       <r>   -0.1549    1.0000 </r>
       <r>   -0.1357    1.0000 </r>
       <r>    1.4104    1.0000 </r>
       <r>    1.4154    1.0000 </r>
       <r>    5.6328    0.0000 </r>
       <r>    5.6582    0.0000 </r>
       <r>    7.9339    0.0000 </r>
       <r>    8.0361    0.0000 </r>
       <r>    9.9162    0.0000 </r>
       <r>    9.9974    0.0000 </r>
       <r>   10.0425    0.0000 </r>
       <r>   10.1591    0.0000 </r>
       <r>   10.7997    0.0000 </r>
       <r>   10.9335    0.0000 </r>
       <r>   12.5021    0.0000 </r>
       <r>   12.5396    0.0000 </r>
       <r>   15.9244    0.0000 </r>
       <r>   15.9622    0.0000 </r>
       <r>   16.4871    0.0000 </r>
       <r>   16.5148    0.0000 </r>
       <r>   17.5279    0.0000 </r>
       <r>   17.6148    0.0000 </r>
       <r>   18.2650    0.0000 </r>
       <r>   18.2843    0.0000 </r>
       <r>   18.7106    0.0000 </r>
       <r>   18.7252    0.0000 </r>
       <r>   19.2639    0.0000 </r>
       <r>   19.3746    0.0000 </r>
       <r>   20.6201    0.0000 </r>
       <r>   20.8493    0.0000 </r>
       <r>   22.1410    0.0000 </r>
       <r>   22.2013    0.0000 </r>
       <r>   22.4114    0.0000 </r>
       <r>   22.4636    0.0000 </r>
       <r>   23.0711    0.0000 </r>
       <r>   23.1020    0.0000 </r>
       <r>   23.2494    0.0000 </r>
       <r>   23.2869    0.0000 </r>
       <r>   24.0839    0.0000 </r>
       <r>   24.1900    0.0000 </r>
       <r>   25.2212    0.0000 </r>
       <r>   25.2407    0.0000 </r>
       <r>   25.7833    0.0000 </r>
       <r>   25.8367    0.0000 </r>
       <r>   26.6170    0.0000 </r>
       <r>   26.6622    0.0000 </r>
       <r>   27.6998    0.0000 </r>
       <r>   27.7061    0.0000 </r>
       <r>   27.8693    0.0000 </r>
       <r>   27.8745    0.0000 </r>
       <r>   28.4955    0.0000 </r>
       <r>   28.5091    0.0000 </r>
      </set>
      <set comment="kpoint 15">
       <r>   -6.8231    1.0000 </r>
       <r>   -6.8118    1.0000 </r>
       <r>   -2.0512    1.0000 </r>
       <r>   -2.0339    1.0000 </r>
       <r>    0.7463    1.0000 </r>
       <r>    0.7662    1.0000 </r>
       <r>    1.9863    1.0000 </r>
       <r>    1.9938    1.0000 </r>
       <r>    5.5124    0.0000 </r>
       <r>    5.5384    0.0000 </r>
       <r>    7.7974    0.0000 </r>
       <r>    7.8239    0.0000 </r>
       <r>    8.6613    0.0000 </r>
       <r>    8.6708    0.0000 </r>
       <r>    9.3106    0.0000 </r>
       <r>    9.3767    0.0000 </r>
       <r>   11.8716    0.0000 </r>
       <r>   11.8977    0.0000 </r>
       <r>   12.6441    0.0000 </r>
       <r>   12.7608    0.0000 </r>
       <r>   13.8745    0.0000 </r>
       <r>   13.9607    0.0000 </r>
       <r>   15.1588    0.0000 </r>
       <r>   15.2709    0.0000 </r>
       <r>   17.1068    0.0000 </r>
       <r>   17.1331    0.0000 </r>
       <r>   18.2011    0.0000 </r>
       <r>   18.2383    0.0000 </r>
       <r>   18.3890    0.0000 </r>
       <r>   18.4343    0.0000 </r>
       <r>   19.7543    0.0000 </r>
       <r>   19.7742    0.0000 </r>
       <r>   21.3029    0.0000 </r>
       <r>   21.3570    0.0000 </r>
       <r>   22.5242    0.0000 </r>
       <r>   22.5532    0.0000 </r>
       <r>   22.7537    0.0000 </r>
       <r>   22.9274    0.0000 </r>
       <r>   23.8269    0.0000 </r>
       <r>   23.9485    0.0000 </r>
       <r>   24.2096    0.0000 </r>
       <r>   24.2472    0.0000 </r>
       <r>   24.4879    0.0000 </r>
       <r>   24.5171    0.0000 </r>
       <r>   26.1849    0.0000 </r>
       <r>   26.2565    0.0000 </r>
       <r>   26.4745    0.0000 </r>
       <r>   26.5460    0.0000 </r>
       <r>   27.0012    0.0000 </r>
       <r>   27.0154    0.0000 </r>
       <r>   28.1102    0.0000 </r>
       <r>   28.1235    0.0000 </r>
       <r>   28.6189    0.0000 </r>
       <r>   28.6616    0.0000 </r>
       <r>   30.4292    0.0000 </r>
       <r>   30.7224    0.0000 </r>
      </set>
      <set comment="kpoint 16">
       <r>   -6.1409    1.0000 </r>
       <r>   -6.1409    1.0000 </r>
       <r>   -2.7685    1.0000 </r>
       <r>   -2.7685    1.0000 </r>
       <r>    0.8233    1.0000 </r>
       <r>    0.8233    1.0000 </r>
       <r>    0.8365    1.0000 </r>
       <r>    0.8365    1.0000 </r>
       <r>    5.0137    0.0000 </r>
       <r>    5.0137    0.0000 </r>
       <r>    5.2272    0.0000 </r>
       <r>    5.2272    0.0000 </r>
       <r>   11.9704    0.0000 </r>
       <r>   11.9704    0.0000 </r>
       <r>   12.3198    0.0000 </r>
       <r>   12.3198    0.0000 </r>
       <r>   12.4958    0.0000 </r>
       <r>   12.4958    0.0000 </r>
       <r>   14.9474    0.0000 </r>
       <r>   14.9474    0.0000 </r>
       <r>   15.4008    0.0000 </r>
       <r>   15.4008    0.0000 </r>
       <r>   15.4741    0.0000 </r>
       <r>   15.4741    0.0000 </r>
       <r>   15.6895    0.0000 </r>
       <r>   15.6895    0.0000 </r>
       <r>   17.1095    0.0000 </r>
       <r>   17.1095    0.0000 </r>
       <r>   20.0636    0.0000 </r>
       <r>   20.0636    0.0000 </r>
       <r>   20.2648    0.0000 </r>
       <r>   20.2648    0.0000 </r>
       <r>   20.3564    0.0000 </r>
       <r>   20.3564    0.0000 </r>
       <r>   20.6509    0.0000 </r>
       <r>   20.6509    0.0000 </r>
       <r>   20.8929    0.0000 </r>
       <r>   20.8929    0.0000 </r>
       <r>   20.9597    0.0000 </r>
       <r>   20.9597    0.0000 </r>
       <r>   21.6121    0.0000 </r>
       <r>   21.6121    0.0000 </r>
       <r>   22.6025    0.0000 </r>
       <r>   22.6025    0.0000 </r>
       <r>   26.6156    0.0000 </r>
       <r>   26.6156    0.0000 </r>
       <r>   26.6980    0.0000 </r>
       <r>   26.6980    0.0000 </r>
       <r>   27.5255    0.0000 </r>
       <r>   27.5256    0.0000 </r>
       <r>   27.6088    0.0000 </r>
       <r>   27.6088    0.0000 </r>
       <r>   31.7481    0.0000 </r>
       <r>   31.7617    0.0000 </r>
       <r>   31.8690    0.0000 </r>
       <r>   31.9455    0.0000 </r>
      </set>
      <set comment="kpoint 17">
       <r>   -6.3507    1.0000 </r>
       <r>   -6.3356    1.0000 </r>
       <r>   -2.4470    1.0000 </r>
       <r>   -2.4269    1.0000 </r>
       <r>    0.3912    1.0000 </r>
       <r>    0.4195    1.0000 </r>
       <r>    1.0759    1.0000 </r>
       <r>    1.0789    1.0000 </r>
       <r>    5.3536    0.0000 </r>
       <r>    5.3576    0.0000 </r>
       <r>    6.4101    0.0000 </r>
       <r>    6.4162    0.0000 </r>
       <r>   10.1296    0.0000 </r>
       <r>   10.2125    0.0000 </r>
       <r>   10.9363    0.0000 </r>
       <r>   10.9550    0.0000 </r>
       <r>   12.1854    0.0000 </r>
       <r>   12.3070    0.0000 </r>
       <r>   14.5410    0.0000 </r>
       <r>   14.5783    0.0000 </r>
       <r>   15.2446    0.0000 </r>
       <r>   15.3784    0.0000 </r>
       <r>   15.8208    0.0000 </r>
       <r>   15.8248    0.0000 </r>
       <r>   16.4071    0.0000 </r>
       <r>   16.4488    0.0000 </r>
       <r>   18.0988    0.0000 </r>
       <r>   18.1305    0.0000 </r>
       <r>   18.6734    0.0000 </r>
       <r>   18.7463    0.0000 </r>
       <r>   19.5473    0.0000 </r>
       <r>   19.5665    0.0000 </r>
       <r>   19.8809    0.0000 </r>
       <r>   19.9283    0.0000 </r>
       <r>   20.7951    0.0000 </r>
       <r>   20.8206    0.0000 </r>
       <r>   21.3762    0.0000 </r>
       <r>   21.4681    0.0000 </r>
       <r>   23.1299    0.0000 </r>
       <r>   23.1625    0.0000 </r>
       <r>   23.2774    0.0000 </r>
       <r>   23.3848    0.0000 </r>
       <r>   23.9819    0.0000 </r>
       <r>   24.0600    0.0000 </r>
       <r>   25.6674    0.0000 </r>
       <r>   25.7387    0.0000 </r>
       <r>   26.1662    0.0000 </r>
       <r>   26.1686    0.0000 </r>
       <r>   27.4008    0.0000 </r>
       <r>   27.4268    0.0000 </r>
       <r>   27.9550    0.0000 </r>
       <r>   28.0054    0.0000 </r>
       <r>   29.4648    0.0000 </r>
       <r>   29.5077    0.0000 </r>
       <r>   29.8435    0.0000 </r>
       <r>   30.0504    0.0000 </r>
      </set>
      <set comment="kpoint 18">
       <r>   -6.6459    1.0000 </r>
       <r>   -6.6333    1.0000 </r>
       <r>   -2.3898    1.0000 </r>
       <r>   -2.3720    1.0000 </r>
       <r>    0.8897    1.0000 </r>
       <r>    0.9159    1.0000 </r>
       <r>    1.6615    1.0000 </r>
       <r>    1.6656    1.0000 </r>
       <r>    5.4394    0.0000 </r>
       <r>    5.4524    0.0000 </r>
       <r>    7.5085    0.0000 </r>
       <r>    7.5475    0.0000 </r>
       <r>    8.9846    0.0000 </r>
       <r>    8.9955    0.0000 </r>
       <r>    9.5956    0.0000 </r>
       <r>    9.6808    0.0000 </r>
       <r>   12.0402    0.0000 </r>
       <r>   12.1576    0.0000 </r>
       <r>   13.5639    0.0000 </r>
       <r>   13.6012    0.0000 </r>
       <r>   14.1469    0.0000 </r>
       <r>   14.1784    0.0000 </r>
       <r>   15.1108    0.0000 </r>
       <r>   15.1843    0.0000 </r>
       <r>   15.5425    0.0000 </r>
       <r>   15.5706    0.0000 </r>
       <r>   18.3478    0.0000 </r>
       <r>   18.4807    0.0000 </r>
       <r>   19.8068    0.0000 </r>
       <r>   19.8610    0.0000 </r>
       <r>   20.0316    0.0000 </r>
       <r>   20.0744    0.0000 </r>
       <r>   21.0465    0.0000 </r>
       <r>   21.0477    0.0000 </r>
       <r>   22.0139    0.0000 </r>
       <r>   22.0372    0.0000 </r>
       <r>   22.4993    0.0000 </r>
       <r>   22.5597    0.0000 </r>
       <r>   23.4186    0.0000 </r>
       <r>   23.4233    0.0000 </r>
       <r>   24.1731    0.0000 </r>
       <r>   24.3069    0.0000 </r>
       <r>   25.2070    0.0000 </r>
       <r>   25.2413    0.0000 </r>
       <r>   25.8538    0.0000 </r>
       <r>   25.8587    0.0000 </r>
       <r>   26.3628    0.0000 </r>
       <r>   26.4286    0.0000 </r>
       <r>   26.9267    0.0000 </r>
       <r>   27.0457    0.0000 </r>
       <r>   28.1052    0.0000 </r>
       <r>   28.1360    0.0000 </r>
       <r>   28.4995    0.0000 </r>
       <r>   28.5523    0.0000 </r>
       <r>   29.2584    0.0000 </r>
       <r>   29.4164    0.0000 </r>
      </set>
      <set comment="kpoint 19">
       <r>   -7.2757    1.0000 </r>
       <r>   -7.2716    1.0000 </r>
       <r>   -1.0342    1.0000 </r>
       <r>   -1.0334    1.0000 </r>
       <r>    1.4945    1.0000 </r>
       <r>    1.5276    1.0000 </r>
       <r>    1.7445    1.0000 </r>
       <r>    1.7465    1.0000 </r>
       <r>    5.5524    0.0000 </r>
       <r>    5.5792    0.0000 </r>
       <r>    6.8082    0.0000 </r>
       <r>    6.8587    0.0000 </r>
       <r>    8.7263    0.0000 </r>
       <r>    8.7585    0.0000 </r>
       <r>    9.2491    0.0000 </r>
       <r>    9.2578    0.0000 </r>
       <r>   11.1121    0.0000 </r>
       <r>   11.1247    0.0000 </r>
       <r>   13.2980    0.0000 </r>
       <r>   13.3308    0.0000 </r>
       <r>   13.3567    0.0000 </r>
       <r>   13.3922    0.0000 </r>
       <r>   15.5891    0.0000 </r>
       <r>   15.6142    0.0000 </r>
       <r>   16.7316    0.0000 </r>
       <r>   16.7742    0.0000 </r>
       <r>   17.7363    0.0000 </r>
       <r>   17.7385    0.0000 </r>
       <r>   17.9803    0.0000 </r>
       <r>   18.0081    0.0000 </r>
       <r>   18.1157    0.0000 </r>
       <r>   18.1291    0.0000 </r>
       <r>   21.4132    0.0000 </r>
       <r>   21.5418    0.0000 </r>
       <r>   21.9942    0.0000 </r>
       <r>   22.0413    0.0000 </r>
       <r>   22.3668    0.0000 </r>
       <r>   22.3708    0.0000 </r>
       <r>   23.1242    0.0000 </r>
       <r>   23.1478    0.0000 </r>
       <r>   25.5987    0.0000 </r>
       <r>   25.6452    0.0000 </r>
       <r>   25.9621    0.0000 </r>
       <r>   25.9731    0.0000 </r>
       <r>   26.6748    0.0000 </r>
       <r>   26.6779    0.0000 </r>
       <r>   28.1218    0.0000 </r>
       <r>   28.1926    0.0000 </r>
       <r>   28.5859    0.0000 </r>
       <r>   28.5962    0.0000 </r>
       <r>   29.4613    0.0000 </r>
       <r>   29.5325    0.0000 </r>
       <r>   29.8475    0.0000 </r>
       <r>   29.9522    0.0000 </r>
       <r>   30.2275    0.0000 </r>
       <r>   30.2651    0.0000 </r>
      </set>
      <set comment="kpoint 20">
       <r>   -6.7028    1.0000 </r>
       <r>   -6.6895    1.0000 </r>
       <r>   -1.9468    1.0000 </r>
       <r>   -1.9276    1.0000 </r>
       <r>    0.4563    1.0000 </r>
       <r>    0.4756    1.0000 </r>
       <r>    1.3550    1.0000 </r>
       <r>    1.3932    1.0000 </r>
       <r>    6.2838    0.0000 </r>
       <r>    6.3792    0.0000 </r>
       <r>    6.8256    0.0000 </r>
       <r>    6.9201    0.0000 </r>
       <r>    8.2476    0.0000 </r>
       <r>    8.4008    0.0000 </r>
       <r>   10.5205    0.0000 </r>
       <r>   10.6716    0.0000 </r>
       <r>   11.4298    0.0000 </r>
       <r>   11.4910    0.0000 </r>
       <r>   13.8143    0.0000 </r>
       <r>   13.9676    0.0000 </r>
       <r>   15.1498    0.0000 </r>
       <r>   15.2699    0.0000 </r>
       <r>   15.4443    0.0000 </r>
       <r>   15.4698    0.0000 </r>
       <r>   16.0411    0.0000 </r>
       <r>   16.1130    0.0000 </r>
       <r>   17.8915    0.0000 </r>
       <r>   17.9899    0.0000 </r>
       <r>   18.6220    0.0000 </r>
       <r>   18.7406    0.0000 </r>
       <r>   19.7147    0.0000 </r>
       <r>   19.7386    0.0000 </r>
       <r>   20.5352    0.0000 </r>
       <r>   20.6151    0.0000 </r>
       <r>   22.0035    0.0000 </r>
       <r>   22.0559    0.0000 </r>
       <r>   22.3210    0.0000 </r>
       <r>   22.4392    0.0000 </r>
       <r>   23.0852    0.0000 </r>
       <r>   23.1672    0.0000 </r>
       <r>   23.4742    0.0000 </r>
       <r>   23.5039    0.0000 </r>
       <r>   25.1487    0.0000 </r>
       <r>   25.2173    0.0000 </r>
       <r>   25.6684    0.0000 </r>
       <r>   25.7064    0.0000 </r>
       <r>   26.7492    0.0000 </r>
       <r>   26.8342    0.0000 </r>
       <r>   27.1585    0.0000 </r>
       <r>   27.1823    0.0000 </r>
       <r>   28.2949    0.0000 </r>
       <r>   28.3262    0.0000 </r>
       <r>   29.3476    0.0000 </r>
       <r>   29.3908    0.0000 </r>
       <r>   29.7663    0.0000 </r>
       <r>   29.9577    0.0000 </r>
      </set>
      <set comment="kpoint 21">
       <r>   -6.3147    1.0000 </r>
       <r>   -6.2909    1.0000 </r>
       <r>   -2.5106    1.0000 </r>
       <r>   -2.4746    1.0000 </r>
       <r>    0.0852    1.0000 </r>
       <r>    0.1075    1.0000 </r>
       <r>    1.0378    1.0000 </r>
       <r>    1.0807    1.0000 </r>
       <r>    6.4304    0.0000 </r>
       <r>    6.4906    0.0000 </r>
       <r>    7.3749    0.0000 </r>
       <r>    7.4559    0.0000 </r>
       <r>    8.7082    0.0000 </r>
       <r>    8.8353    0.0000 </r>
       <r>   10.5215    0.0000 </r>
       <r>   10.6561    0.0000 </r>
       <r>   11.0693    0.0000 </r>
       <r>   11.2841    0.0000 </r>
       <r>   13.8766    0.0000 </r>
       <r>   13.8924    0.0000 </r>
       <r>   15.1211    0.0000 </r>
       <r>   15.1807    0.0000 </r>
       <r>   15.4194    0.0000 </r>
       <r>   15.4959    0.0000 </r>
       <r>   17.8339    0.0000 </r>
       <r>   17.9084    0.0000 </r>
       <r>   18.1783    0.0000 </r>
       <r>   18.2505    0.0000 </r>
       <r>   19.0769    0.0000 </r>
       <r>   19.1171    0.0000 </r>
       <r>   19.8996    0.0000 </r>
       <r>   19.9511    0.0000 </r>
       <r>   20.2341    0.0000 </r>
       <r>   20.3934    0.0000 </r>
       <r>   21.8062    0.0000 </r>
       <r>   21.9737    0.0000 </r>
       <r>   22.4603    0.0000 </r>
       <r>   22.5091    0.0000 </r>
       <r>   22.9462    0.0000 </r>
       <r>   22.9851    0.0000 </r>
       <r>   23.3042    0.0000 </r>
       <r>   23.3618    0.0000 </r>
       <r>   24.7201    0.0000 </r>
       <r>   24.7411    0.0000 </r>
       <r>   24.9051    0.0000 </r>
       <r>   24.9636    0.0000 </r>
       <r>   25.5093    0.0000 </r>
       <r>   25.5468    0.0000 </r>
       <r>   26.9103    0.0000 </r>
       <r>   26.9723    0.0000 </r>
       <r>   28.0331    0.0000 </r>
       <r>   28.1033    0.0000 </r>
       <r>   28.7398    0.0000 </r>
       <r>   28.8752    0.0000 </r>
       <r>   29.0028    0.0000 </r>
       <r>   29.2100    0.0000 </r>
      </set>
      <set comment="kpoint 22">
       <r>   -6.1286    1.0000 </r>
       <r>   -6.1033    1.0000 </r>
       <r>   -2.6746    1.0000 </r>
       <r>   -2.6395    1.0000 </r>
       <r>    0.3057    1.0000 </r>
       <r>    0.3809    1.0000 </r>
       <r>    0.4156    1.0000 </r>
       <r>    0.5269    1.0000 </r>
       <r>    6.3746    0.0000 </r>
       <r>    6.4365    0.0000 </r>
       <r>    6.4493    0.0000 </r>
       <r>    6.5320    0.0000 </r>
       <r>    9.6793    0.0000 </r>
       <r>    9.8512    0.0000 </r>
       <r>   10.2546    0.0000 </r>
       <r>   10.2670    0.0000 </r>
       <r>   12.6494    0.0000 </r>
       <r>   12.7647    0.0000 </r>
       <r>   14.7578    0.0000 </r>
       <r>   14.7958    0.0000 </r>
       <r>   14.9899    0.0000 </r>
       <r>   15.1667    0.0000 </r>
       <r>   15.4239    0.0000 </r>
       <r>   15.5075    0.0000 </r>
       <r>   18.0681    0.0000 </r>
       <r>   18.1438    0.0000 </r>
       <r>   18.8250    0.0000 </r>
       <r>   18.8793    0.0000 </r>
       <r>   18.9148    0.0000 </r>
       <r>   18.9647    0.0000 </r>
       <r>   19.1157    0.0000 </r>
       <r>   19.1237    0.0000 </r>
       <r>   19.4442    0.0000 </r>
       <r>   19.5622    0.0000 </r>
       <r>   20.2014    0.0000 </r>
       <r>   20.2567    0.0000 </r>
       <r>   22.5814    0.0000 </r>
       <r>   22.6392    0.0000 </r>
       <r>   22.9116    0.0000 </r>
       <r>   23.0128    0.0000 </r>
       <r>   23.8001    0.0000 </r>
       <r>   23.8311    0.0000 </r>
       <r>   23.9008    0.0000 </r>
       <r>   23.9240    0.0000 </r>
       <r>   24.5363    0.0000 </r>
       <r>   24.6976    0.0000 </r>
       <r>   24.7052    0.0000 </r>
       <r>   24.7358    0.0000 </r>
       <r>   26.8187    0.0000 </r>
       <r>   26.8836    0.0000 </r>
       <r>   28.1875    0.0000 </r>
       <r>   28.2081    0.0000 </r>
       <r>   28.9269    0.0000 </r>
       <r>   28.9991    0.0000 </r>
       <r>   29.6443    0.0000 </r>
       <r>   29.8836    0.0000 </r>
      </set>
     </set>
    </set>
   </array>
  </eigenvalues>
  <separator name="orbital magnetization" >
   <v name="MAGDIPOLOUT">      0.00000000      0.00000000      0.00000000</v>
  </separator>
  <dos>
   <i name="efermi">      2.97097218 </i>
   <total>
    <array>
     <dimension dim="1">gridpoints</dimension>
     <dimension dim="2">spin</dimension>
     <field>energy</field>
     <field>total</field>
     <field>integrated</field>
     <set>
      <set comment="spin 1">
       <r>   -10.2709     0.0000     0.0000 </r>
       <r>   -10.1169     0.0000     0.0000 </r>
       <r>    -9.9629     0.0000     0.0000 </r>
       <r>    -9.8089     0.0000     0.0000 </r>
       <r>    -9.6549     0.0000     0.0000 </r>
       <r>    -9.5009     0.0000     0.0000 </r>
       <r>    -9.3469     0.0000     0.0000 </r>
       <r>    -9.1929     0.0000     0.0000 </r>
       <r>    -9.0389     0.0000     0.0000 </r>
       <r>    -8.8849     0.0000     0.0000 </r>
       <r>    -8.7309     0.0000     0.0000 </r>
       <r>    -8.5769    -0.0000    -0.0000 </r>
       <r>    -8.4229    -0.0000    -0.0000 </r>
       <r>    -8.2689    -0.0005    -0.0001 </r>
       <r>    -8.1149     0.0627     0.0096 </r>
       <r>    -7.9609    -0.0143     0.0074 </r>
       <r>    -7.8069     0.7656     0.1253 </r>
       <r>    -7.6529     0.0884     0.1389 </r>
       <r>    -7.4989     0.4314     0.2053 </r>
       <r>    -7.3450     0.2432     0.2428 </r>
       <r>    -7.1910     2.0117     0.5525 </r>
       <r>    -7.0370    -0.0406     0.5463 </r>
       <r>    -6.8830     0.1799     0.5740 </r>
       <r>    -6.7290     1.9279     0.8709 </r>
       <r>    -6.5750     2.8729     1.3133 </r>
       <r>    -6.4210    -0.0927     1.2990 </r>
       <r>    -6.2670     3.5573     1.8468 </r>
       <r>    -6.1130     0.6483     1.9467 </r>
       <r>    -5.9590     0.3464     2.0000 </r>
       <r>    -5.8050    -0.0001     2.0000 </r>
       <r>    -5.6510     0.0000     2.0000 </r>
       <r>    -5.4970     0.0000     2.0000 </r>
       <r>    -5.3430     0.0000     2.0000 </r>
       <r>    -5.1890     0.0000     2.0000 </r>
       <r>    -5.0350     0.0000     2.0000 </r>
       <r>    -4.8810     0.0000     2.0000 </r>
       <r>    -4.7270     0.0000     2.0000 </r>
       <r>    -4.5730     0.0000     2.0000 </r>
       <r>    -4.4191     0.0000     2.0000 </r>
       <r>    -4.2651     0.0000     2.0000 </r>
       <r>    -4.1111     0.0000     2.0000 </r>
       <r>    -3.9571     0.0000     2.0000 </r>
       <r>    -3.8031     0.0000     2.0000 </r>
       <r>    -3.6491     0.0000     2.0000 </r>
       <r>    -3.4951     0.0000     2.0000 </r>
       <r>    -3.3411     0.0000     2.0000 </r>
       <r>    -3.1871    -0.0000     2.0000 </r>
       <r>    -3.0331    -0.0000     2.0000 </r>
       <r>    -2.8791    -0.0007     1.9999 </r>
       <r>    -2.7251     0.1661     2.0255 </r>
       <r>    -2.5711     0.8131     2.1507 </r>
       <r>    -2.4171     3.5550     2.6981 </r>
       <r>    -2.2631     1.6634     2.9543 </r>
       <r>    -2.1091    -0.0487     2.9468 </r>
       <r>    -1.9551     1.8479     3.2314 </r>
       <r>    -1.8011     1.0839     3.3983 </r>
       <r>    -1.6471    -0.0133     3.3962 </r>
       <r>    -1.4932     0.8427     3.5260 </r>
       <r>    -1.3392     0.0115     3.5278 </r>
       <r>    -1.1852    -0.0001     3.5278 </r>
       <r>    -1.0312     0.7866     3.6489 </r>
       <r>    -0.8772     0.6566     3.7500 </r>
       <r>    -0.7232    -0.0001     3.7500 </r>
       <r>    -0.5692    -0.0194     3.7470 </r>
       <r>    -0.4152     0.7456     3.8618 </r>
       <r>    -0.2612    -0.0070     3.8608 </r>
       <r>    -0.1072     0.6969     3.9681 </r>
       <r>     0.0468     0.0149     3.9704 </r>
       <r>     0.2008     1.4635     4.1957 </r>
       <r>     0.3548     0.3811     4.2544 </r>
       <r>     0.5088     3.6549     4.8173 </r>
       <r>     0.6628     0.7920     4.9392 </r>
       <r>     0.8168     1.8970     5.2314 </r>
       <r>     0.9708     1.6893     5.4915 </r>
       <r>     1.1248     2.9100     5.9396 </r>
       <r>     1.2788     0.6779     6.0440 </r>
       <r>     1.4327     2.7555     6.4684 </r>
       <r>     1.5867     1.5854     6.7125 </r>
       <r>     1.7407     2.0887     7.0342 </r>
       <r>     1.8947     0.8306     7.1621 </r>
       <r>     2.0487     1.6955     7.4231 </r>
       <r>     2.2027     1.1748     7.6041 </r>
       <r>     2.3567     0.7224     7.7153 </r>
       <r>     2.5107     1.0210     7.8725 </r>
       <r>     2.6647     0.2901     7.9172 </r>
       <r>     2.8187     0.4172     7.9815 </r>
       <r>     2.9727     0.1213     8.0001 </r>
       <r>     3.1267    -0.0009     8.0000 </r>
       <r>     3.2807     0.0562     8.0086 </r>
       <r>     3.4347     0.0040     8.0093 </r>
       <r>     3.5887    -0.0000     8.0093 </r>
       <r>     3.7427     0.0000     8.0093 </r>
       <r>     3.8967    -0.0000     8.0093 </r>
       <r>     4.0507    -0.0000     8.0093 </r>
       <r>     4.2047    -0.0010     8.0091 </r>
       <r>     4.3587     0.2419     8.0464 </r>
       <r>     4.5126     0.6696     8.1495 </r>
       <r>     4.6666     0.2921     8.1945 </r>
       <r>     4.8206    -0.0001     8.1944 </r>
       <r>     4.9746     0.0026     8.1949 </r>
       <r>     5.1286     0.1756     8.2219 </r>
       <r>     5.2826     0.8001     8.3451 </r>
       <r>     5.4366     2.6910     8.7595 </r>
       <r>     5.5906     3.6940     9.3284 </r>
       <r>     5.7446     0.9379     9.4728 </r>
       <r>     5.8986     0.3586     9.5280 </r>
       <r>     6.0526    -0.0015     9.5278 </r>
       <r>     6.2066    -0.0185     9.5249 </r>
       <r>     6.3606     0.9249     9.6674 </r>
       <r>     6.5146     4.9026    10.4223 </r>
       <r>     6.6686     0.3239    10.4722 </r>
       <r>     6.8226     0.8695    10.6061 </r>
       <r>     6.9766     2.0427    10.9207 </r>
       <r>     7.1306    -0.0262    10.9166 </r>
       <r>     7.2846     0.0484    10.9241 </r>
       <r>     7.4385     0.8813    11.0598 </r>
       <r>     7.5925     2.8482    11.4984 </r>
       <r>     7.7465     0.4067    11.5611 </r>
       <r>     7.9005     1.9563    11.8623 </r>
       <r>     8.0545     0.8050    11.9863 </r>
       <r>     8.2085     1.7794    12.2603 </r>
       <r>     8.3625     1.5297    12.4959 </r>
       <r>     8.5165     1.2503    12.6884 </r>
       <r>     8.6705     1.3870    12.9020 </r>
       <r>     8.8245     3.4377    13.4314 </r>
       <r>     8.9785     0.8976    13.5696 </r>
       <r>     9.1325     1.0329    13.7287 </r>
       <r>     9.2865     1.8890    14.0196 </r>
       <r>     9.4405     1.4621    14.2447 </r>
       <r>     9.5945     0.3022    14.2912 </r>
       <r>     9.7485     1.5087    14.5236 </r>
       <r>     9.9025     0.6663    14.6262 </r>
       <r>    10.0565     0.8747    14.7609 </r>
       <r>    10.2105     1.5381    14.9977 </r>
       <r>    10.3644     1.2810    15.1950 </r>
       <r>    10.5184     1.1876    15.3779 </r>
       <r>    10.6724     1.8511    15.6629 </r>
       <r>    10.8264     1.1386    15.8383 </r>
       <r>    10.9804     2.3467    16.1997 </r>
       <r>    11.1344     2.3963    16.5687 </r>
       <r>    11.2884     0.7478    16.6838 </r>
       <r>    11.4424     1.2038    16.8692 </r>
       <r>    11.5964     1.0336    17.0284 </r>
       <r>    11.7504    -0.0233    17.0248 </r>
       <r>    11.9044     2.5332    17.4149 </r>
       <r>    12.0584     1.2655    17.6098 </r>
       <r>    12.2124     1.6203    17.8593 </r>
       <r>    12.3664     1.7083    18.1224 </r>
       <r>    12.5204     1.4630    18.3477 </r>
       <r>    12.6744     1.3478    18.5552 </r>
       <r>    12.8284     1.6169    18.8042 </r>
       <r>    12.9824     0.0689    18.8148 </r>
       <r>    13.1364     0.0277    18.8191 </r>
       <r>    13.2903     0.7578    18.9358 </r>
       <r>    13.4443     3.6985    19.5054 </r>
       <r>    13.5983     0.9978    19.6590 </r>
       <r>    13.7523     0.5636    19.7458 </r>
       <r>    13.9063     2.5624    20.1404 </r>
       <r>    14.0603     2.2831    20.4920 </r>
       <r>    14.2143     1.8037    20.7697 </r>
       <r>    14.3683    -0.0143    20.7675 </r>
       <r>    14.5223     1.1488    20.9444 </r>
       <r>    14.6763     1.7423    21.2127 </r>
       <r>    14.8303     0.7175    21.3232 </r>
       <r>    14.9843     0.3263    21.3735 </r>
       <r>    15.1383     1.8500    21.6584 </r>
       <r>    15.2923     6.0463    22.5895 </r>
       <r>    15.4463     2.6035    22.9904 </r>
       <r>    15.6003     4.4229    23.6715 </r>
       <r>    15.7543     2.2720    24.0214 </r>
       <r>    15.9083     1.6411    24.2741 </r>
       <r>    16.0623     1.8646    24.5612 </r>
       <r>    16.2162     1.4099    24.7784 </r>
[...]
       <r>    22.3760     0.0000     0.0000 </r>
       <r>    22.5300     0.0000     0.0000 </r>
       <r>    22.6840     0.0000     0.0000 </r>
       <r>    22.8380     0.0000     0.0000 </r>
       <r>    22.9920     0.0000     0.0000 </r>
       <r>    23.1460     0.0000     0.0000 </r>
       <r>    23.3000     0.0000     0.0000 </r>
       <r>    23.4540     0.0000     0.0000 </r>
       <r>    23.6080     0.0000     0.0000 </r>
       <r>    23.7620     0.0000     0.0000 </r>
       <r>    23.9160     0.0000     0.0000 </r>
       <r>    24.0700     0.0000     0.0000 </r>
       <r>    24.2240     0.0000     0.0000 </r>
       <r>    24.3780     0.0000     0.0000 </r>
       <r>    24.5320     0.0000     0.0000 </r>
       <r>    24.6860     0.0000     0.0000 </r>
       <r>    24.8400     0.0000     0.0000 </r>
       <r>    24.9939     0.0000     0.0000 </r>
       <r>    25.1479     0.0000     0.0000 </r>
       <r>    25.3019     0.0000     0.0000 </r>
       <r>    25.4559     0.0000     0.0000 </r>
       <r>    25.6099     0.0000     0.0000 </r>
       <r>    25.7639     0.0000     0.0000 </r>
       <r>    25.9179     0.0000     0.0000 </r>
       <r>    26.0719     0.0000     0.0000 </r>
       <r>    26.2259     0.0000     0.0000 </r>
       <r>    26.3799     0.0000     0.0000 </r>
       <r>    26.5339     0.0000     0.0000 </r>
       <r>    26.6879     0.0000     0.0000 </r>
       <r>    26.8419     0.0000     0.0000 </r>
       <r>    26.9959     0.0000     0.0000 </r>
       <r>    27.1499     0.0000     0.0000 </r>
       <r>    27.3039     0.0000     0.0000 </r>
       <r>    27.4579     0.0000     0.0000 </r>
       <r>    27.6119     0.0000     0.0000 </r>
       <r>    27.7659     0.0000     0.0000 </r>
       <r>    27.9198     0.0000     0.0000 </r>
       <r>    28.0738     0.0000     0.0000 </r>
       <r>    28.2278     0.0000     0.0000 </r>
       <r>    28.3818     0.0000     0.0000 </r>
       <r>    28.5358     0.0000     0.0000 </r>
       <r>    28.6898     0.0000     0.0000 </r>
       <r>    28.8438     0.0000     0.0000 </r>
       <r>    28.9978     0.0000     0.0000 </r>
       <r>    29.1518     0.0000     0.0000 </r>
       <r>    29.3058     0.0000     0.0000 </r>
       <r>    29.4598     0.0000     0.0000 </r>
       <r>    29.6138     0.0000     0.0000 </r>
       <r>    29.7678     0.0000     0.0000 </r>
       <r>    29.9218     0.0000     0.0000 </r>
       <r>    30.0758     0.0000     0.0000 </r>
       <r>    30.2298     0.0000     0.0000 </r>
       <r>    30.3838     0.0000     0.0000 </r>
       <r>    30.5378     0.0000     0.0000 </r>
       <r>    30.6918     0.0000     0.0000 </r>
       <r>    30.8457     0.0000     0.0000 </r>
       <r>    30.9997     0.0000     0.0000 </r>
       <r>    31.1537     0.0000     0.0000 </r>
       <r>    31.3077     0.0000     0.0000 </r>
       <r>    31.4617     0.0000     0.0000 </r>
       <r>    31.6157     0.0000     0.0000 </r>
       <r>    31.7697     0.0000     0.0000 </r>
       <r>    31.9237     0.0000     0.0000 </r>
       <r>    32.0777     0.0000     0.0000 </r>
       <r>    32.2317     0.0000     0.0000 </r>
       <r>    32.3857     0.0000     0.0000 </r>
       <r>    32.5397     0.0000     0.0000 </r>
       <r>    32.6937     0.0000     0.0000 </r>
       <r>    32.8477     0.0000     0.0000 </r>
       <r>    33.0017     0.0000     0.0000 </r>
       <r>    33.1557     0.0000     0.0000 </r>
       <r>    33.3097     0.0000     0.0000 </r>
       <r>    33.4637     0.0000     0.0000 </r>
       <r>    33.6177     0.0000     0.0000 </r>
       <r>    33.7716     0.0000     0.0000 </r>
       <r>    33.9256     0.0000     0.0000 </r>
       <r>    34.0796     0.0000     0.0000 </r>
       <r>    34.2336     0.0000     0.0000 </r>
       <r>    34.3876     0.0000     0.0000 </r>
       <r>    34.5416     0.0000     0.0000 </r>
       <r>    34.6956     0.0000     0.0000 </r>
       <r>    34.8496     0.0000     0.0000 </r>
       <r>    35.0036     0.0000     0.0000 </r>
       <r>    35.1576     0.0000     0.0000 </r>
       <r>    35.3116     0.0000     0.0000 </r>
       <r>    35.4656     0.0000     0.0000 </r>
       <r>    35.6196     0.0000     0.0000 </r>
       <r>    35.7736     0.0000     0.0000 </r>
       <r>    35.9276     0.0000     0.0000 </r>
      </set>
      <set comment="spin 4">
       <r>   -10.2709     0.0000     0.0000 </r>
       <r>   -10.1169     0.0000     0.0000 </r>
       <r>    -9.9629     0.0000     0.0000 </r>
       <r>    -9.8089     0.0000     0.0000 </r>
       <r>    -9.6549     0.0000     0.0000 </r>
       <r>    -9.5009     0.0000     0.0000 </r>
       <r>    -9.3469     0.0000     0.0000 </r>
       <r>    -9.1929     0.0000     0.0000 </r>
       <r>    -9.0389     0.0000     0.0000 </r>
       <r>    -8.8849     0.0000     0.0000 </r>
       <r>    -8.7309     0.0000     0.0000 </r>
       <r>    -8.5769     0.0000     0.0000 </r>
       <r>    -8.4229     0.0000     0.0000 </r>
       <r>    -8.2689     0.0000     0.0000 </r>
       <r>    -8.1149     0.0000     0.0000 </r>
       <r>    -7.9609     0.0000     0.0000 </r>
       <r>    -7.8069     0.0000     0.0000 </r>
       <r>    -7.6529     0.0000     0.0000 </r>
       <r>    -7.4989     0.0000     0.0000 </r>
       <r>    -7.3450     0.0000     0.0000 </r>
       <r>    -7.1910     0.0000     0.0000 </r>
       <r>    -7.0370     0.0000     0.0000 </r>
       <r>    -6.8830     0.0000     0.0000 </r>
       <r>    -6.7290     0.0000     0.0000 </r>
       <r>    -6.5750     0.0000     0.0000 </r>
       <r>    -6.4210     0.0000     0.0000 </r>
       <r>    -6.2670     0.0000     0.0000 </r>
       <r>    -6.1130     0.0000     0.0000 </r>
       <r>    -5.9590     0.0000     0.0000 </r>
       <r>    -5.8050     0.0000     0.0000 </r>
       <r>    -5.6510     0.0000     0.0000 </r>
       <r>    -5.4970     0.0000     0.0000 </r>
       <r>    -5.3430     0.0000     0.0000 </r>
       <r>    -5.1890     0.0000     0.0000 </r>
       <r>    -5.0350     0.0000     0.0000 </r>
       <r>    -4.8810     0.0000     0.0000 </r>
       <r>    -4.7270     0.0000     0.0000 </r>
       <r>    -4.5730     0.0000     0.0000 </r>
       <r>    -4.4191     0.0000     0.0000 </r>
       <r>    -4.2651     0.0000     0.0000 </r>
       <r>    -4.1111     0.0000     0.0000 </r>
       <r>    -3.9571     0.0000     0.0000 </r>
       <r>    -3.8031     0.0000     0.0000 </r>
       <r>    -3.6491     0.0000     0.0000 </r>
       <r>    -3.4951     0.0000     0.0000 </r>
       <r>    -3.3411     0.0000     0.0000 </r>
       <r>    -3.1871     0.0000     0.0000 </r>
       <r>    -3.0331     0.0000     0.0000 </r>
       <r>    -2.8791     0.0000     0.0000 </r>
       <r>    -2.7251     0.0000     0.0000 </r>
       <r>    -2.5711     0.0000     0.0000 </r>
       <r>    -2.4171     0.0000     0.0000 </r>
       <r>    -2.2631     0.0000     0.0000 </r>
       <r>    -2.1091     0.0000     0.0000 </r>
       <r>    -1.9551     0.0000     0.0000 </r>
       <r>    -1.8011     0.0000     0.0000 </r>
       <r>    -1.6471     0.0000     0.0000 </r>
       <r>    -1.4932     0.0000     0.0000 </r>
       <r>    -1.3392     0.0000     0.0000 </r>
       <r>    -1.1852     0.0000     0.0000 </r>
       <r>    -1.0312     0.0000     0.0000 </r>
       <r>    -0.8772     0.0000     0.0000 </r>
       <r>    -0.7232     0.0000     0.0000 </r>
       <r>    -0.5692     0.0000     0.0000 </r>
       <r>    -0.4152     0.0000     0.0000 </r>
       <r>    -0.2612     0.0000     0.0000 </r>
       <r>    -0.1072     0.0000     0.0000 </r>
       <r>     0.0468     0.0000     0.0000 </r>
       <r>     0.2008     0.0000     0.0000 </r>
       <r>     0.3548     0.0000     0.0000 </r>
       <r>     0.5088     0.0000     0.0000 </r>
       <r>     0.6628     0.0000     0.0000 </r>
       <r>     0.8168     0.0000     0.0000 </r>
       <r>     0.9708     0.0000     0.0000 </r>
       <r>     1.1248     0.0000     0.0000 </r>
       <r>     1.2788     0.0000     0.0000 </r>
       <r>     1.4327     0.0000     0.0000 </r>
       <r>     1.5867     0.0000     0.0000 </r>
       <r>     1.7407     0.0000     0.0000 </r>
       <r>     1.8947     0.0000     0.0000 </r>
       <r>     2.0487     0.0000     0.0000 </r>
       <r>     2.2027     0.0000     0.0000 </r>
       <r>     2.3567     0.0000     0.0000 </r>
       <r>     2.5107     0.0000     0.0000 </r>
       <r>     2.6647     0.0000     0.0000 </r>
       <r>     2.8187     0.0000     0.0000 </r>
       <r>     2.9727     0.0000     0.0000 </r>
       <r>     3.1267     0.0000     0.0000 </r>
       <r>     3.2807     0.0000     0.0000 </r>
       <r>     3.4347     0.0000     0.0000 </r>
       <r>     3.5887     0.0000     0.0000 </r>
       <r>     3.7427     0.0000     0.0000 </r>
       <r>     3.8967     0.0000     0.0000 </r>
       <r>     4.0507     0.0000     0.0000 </r>
       <r>     4.2047     0.0000     0.0000 </r>
       <r>     4.3587     0.0000     0.0000 </r>
       <r>     4.5126     0.0000     0.0000 </r>
       <r>     4.6666     0.0000     0.0000 </r>
       <r>     4.8206     0.0000     0.0000 </r>
       <r>     4.9746     0.0000     0.0000 </r>
       <r>     5.1286     0.0000     0.0000 </r>
       <r>     5.2826     0.0000     0.0000 </r>
       <r>     5.4366     0.0000     0.0000 </r>
       <r>     5.5906     0.0000     0.0000 </r>
       <r>     5.7446     0.0000     0.0000 </r>
       <r>     5.8986     0.0000     0.0000 </r>
       <r>     6.0526     0.0000     0.0000 </r>
       <r>     6.2066     0.0000     0.0000 </r>
       <r>     6.3606     0.0000     0.0000 </r>
       <r>     6.5146     0.0000     0.0000 </r>
       <r>     6.6686     0.0000     0.0000 </r>
       <r>     6.8226     0.0000     0.0000 </r>
       <r>     6.9766     0.0000     0.0000 </r>
       <r>     7.1306     0.0000     0.0000 </r>
       <r>     7.2846     0.0000     0.0000 </r>
       <r>     7.4385     0.0000     0.0000 </r>
       <r>     7.5925     0.0000     0.0000 </r>
       <r>     7.7465     0.0000     0.0000 </r>
       <r>     7.9005     0.0000     0.0000 </r>
       <r>     8.0545     0.0000     0.0000 </r>
       <r>     8.2085     0.0000     0.0000 </r>
       <r>     8.3625     0.0000     0.0000 </r>
       <r>     8.5165     0.0000     0.0000 </r>
       <r>     8.6705     0.0000     0.0000 </r>
       <r>     8.8245     0.0000     0.0000 </r>
       <r>     8.9785     0.0000     0.0000 </r>
       <r>     9.1325     0.0000     0.0000 </r>
       <r>     9.2865     0.0000     0.0000 </r>
       <r>     9.4405     0.0000     0.0000 </r>
       <r>     9.5945     0.0000     0.0000 </r>
       <r>     9.7485     0.0000     0.0000 </r>
       <r>     9.9025     0.0000     0.0000 </r>
       <r>    10.0565     0.0000     0.0000 </r>
       <r>    10.2105     0.0000     0.0000 </r>
       <r>    10.3644     0.0000     0.0000 </r>
       <r>    10.5184     0.0000     0.0000 </r>
       <r>    10.6724     0.0000     0.0000 </r>
       <r>    10.8264     0.0000     0.0000 </r>
       <r>    10.9804     0.0000     0.0000 </r>
       <r>    11.1344     0.0000     0.0000 </r>
       <r>    11.2884     0.0000     0.0000 </r>
       <r>    11.4424     0.0000     0.0000 </r>
       <r>    11.5964     0.0000     0.0000 </r>
       <r>    11.7504     0.0000     0.0000 </r>
       <r>    11.9044     0.0000     0.0000 </r>
       <r>    12.0584     0.0000     0.0000 </r>
       <r>    12.2124     0.0000     0.0000 </r>
       <r>    12.3664     0.0000     0.0000 </r>
       <r>    12.5204     0.0000     0.0000 </r>
       <r>    12.6744     0.0000     0.0000 </r>
       <r>    12.8284     0.0000     0.0000 </r>
       <r>    12.9824     0.0000     0.0000 </r>
       <r>    13.1364     0.0000     0.0000 </r>
       <r>    13.2903     0.0000     0.0000 </r>
       <r>    13.4443     0.0000     0.0000 </r>
       <r>    13.5983     0.0000     0.0000 </r>
       <r>    13.7523     0.0000     0.0000 </r>
       <r>    13.9063     0.0000     0.0000 </r>
       <r>    14.0603     0.0000     0.0000 </r>
       <r>    14.2143     0.0000     0.0000 </r>
       <r>    14.3683     0.0000     0.0000 </r>
       <r>    14.5223     0.0000     0.0000 </r>
       <r>    14.6763     0.0000     0.0000 </r>
       <r>    14.8303     0.0000     0.0000 </r>
       <r>    14.9843     0.0000     0.0000 </r>
       <r>    15.1383     0.0000     0.0000 </r>
       <r>    15.2923     0.0000     0.0000 </r>
       <r>    15.4463     0.0000     0.0000 </r>
       <r>    15.6003     0.0000     0.0000 </r>
       <r>    15.7543     0.0000     0.0000 </r>
       <r>    15.9083     0.0000     0.0000 </r>
       <r>    16.0623     0.0000     0.0000 </r>
       <r>    16.2162     0.0000     0.0000 </r>
       <r>    16.3702     0.0000     0.0000 </r>
       <r>    16.5242     0.0000     0.0000 </r>
       <r>    16.6782     0.0000     0.0000 </r>
       <r>    16.8322     0.0000     0.0000 </r>
       <r>    16.9862     0.0000     0.0000 </r>
       <r>    17.1402     0.0000     0.0000 </r>
       <r>    17.2942     0.0000     0.0000 </r>
       <r>    17.4482     0.0000     0.0000 </r>
       <r>    17.6022     0.0000     0.0000 </r>
       <r>    17.7562     0.0000     0.0000 </r>
       <r>    17.9102     0.0000     0.0000 </r>
       <r>    18.0642     0.0000     0.0000 </r>
       <r>    18.2182     0.0000     0.0000 </r>
       <r>    18.3722     0.0000     0.0000 </r>
       <r>    18.5262     0.0000     0.0000 </r>
       <r>    18.6802     0.0000     0.0000 </r>
       <r>    18.8342     0.0000     0.0000 </r>
       <r>    18.9882     0.0000     0.0000 </r>
       <r>    19.1421     0.0000     0.0000 </r>
       <r>    19.2961     0.0000     0.0000 </r>
       <r>    19.4501     0.0000     0.0000 </r>
       <r>    19.6041     0.0000     0.0000 </r>
       <r>    19.7581     0.0000     0.0000 </r>
       <r>    19.9121     0.0000     0.0000 </r>
       <r>    20.0661     0.0000     0.0000 </r>
       <r>    20.2201     0.0000     0.0000 </r>
       <r>    20.3741     0.0000     0.0000 </r>
       <r>    20.5281     0.0000     0.0000 </r>
       <r>    20.6821     0.0000     0.0000 </r>
       <r>    20.8361     0.0000     0.0000 </r>
       <r>    20.9901     0.0000     0.0000 </r>
       <r>    21.1441     0.0000     0.0000 </r>
       <r>    21.2981     0.0000     0.0000 </r>
       <r>    21.4521     0.0000     0.0000 </r>
       <r>    21.6061     0.0000     0.0000 </r>
       <r>    21.7601     0.0000     0.0000 </r>
       <r>    21.9141     0.0000     0.0000 </r>
       <r>    22.0680     0.0000     0.0000 </r>
       <r>    22.2220     0.0000     0.0000 </r>
       <r>    22.3760     0.0000     0.0000 </r>
       <r>    22.5300     0.0000     0.0000 </r>
       <r>    22.6840     0.0000     0.0000 </r>
       <r>    22.8380     0.0000     0.0000 </r>
       <r>    22.9920     0.0000     0.0000 </r>
       <r>    23.1460     0.0000     0.0000 </r>
       <r>    23.3000     0.0000     0.0000 </r>
       <r>    23.4540     0.0000     0.0000 </r>
       <r>    23.6080     0.0000     0.0000 </r>
       <r>    23.7620     0.0000     0.0000 </r>
       <r>    23.9160     0.0000     0.0000 </r>
       <r>    24.0700     0.0000     0.0000 </r>
       <r>    24.2240     0.0000     0.0000 </r>
       <r>    24.3780     0.0000     0.0000 </r>
       <r>    24.5320     0.0000     0.0000 </r>
       <r>    24.6860     0.0000     0.0000 </r>
       <r>    24.8400     0.0000     0.0000 </r>
       <r>    24.9939     0.0000     0.0000 </r>
       <r>    25.1479     0.0000     0.0000 </r>
       <r>    25.3019     0.0000     0.0000 </r>
       <r>    25.4559     0.0000     0.0000 </r>
       <r>    25.6099     0.0000     0.0000 </r>
       <r>    25.7639     0.0000     0.0000 </r>
       <r>    25.9179     0.0000     0.0000 </r>
       <r>    26.0719     0.0000     0.0000 </r>
       <r>    26.2259     0.0000     0.0000 </r>
       <r>    26.3799     0.0000     0.0000 </r>
       <r>    26.5339     0.0000     0.0000 </r>
       <r>    26.6879     0.0000     0.0000 </r>
       <r>    26.8419     0.0000     0.0000 </r>
       <r>    26.9959     0.0000     0.0000 </r>
       <r>    27.1499     0.0000     0.0000 </r>
       <r>    27.3039     0.0000     0.0000 </r>
       <r>    27.4579     0.0000     0.0000 </r>
       <r>    27.6119     0.0000     0.0000 </r>
       <r>    27.7659     0.0000     0.0000 </r>
       <r>    27.9198     0.0000     0.0000 </r>
       <r>    28.0738     0.0000     0.0000 </r>
       <r>    28.2278     0.0000     0.0000 </r>
       <r>    28.3818     0.0000     0.0000 </r>
       <r>    28.5358     0.0000     0.0000 </r>
       <r>    28.6898     0.0000     0.0000 </r>
       <r>    28.8438     0.0000     0.0000 </r>
       <r>    28.9978     0.0000     0.0000 </r>
       <r>    29.1518     0.0000     0.0000 </r>
       <r>    29.3058     0.0000     0.0000 </r>
       <r>    29.4598     0.0000     0.0000 </r>
       <r>    29.6138     0.0000     0.0000 </r>
       <r>    29.7678     0.0000     0.0000 </r>
       <r>    29.9218     0.0000     0.0000 </r>
       <r>    30.0758     0.0000     0.0000 </r>
       <r>    30.2298     0.0000     0.0000 </r>
       <r>    30.3838     0.0000     0.0000 </r>
       <r>    30.5378     0.0000     0.0000 </r>
       <r>    30.6918     0.0000     0.0000 </r>
       <r>    30.8457     0.0000     0.0000 </r>
       <r>    30.9997     0.0000     0.0000 </r>
       <r>    31.1537     0.0000     0.0000 </r>
       <r>    31.3077     0.0000     0.0000 </r>
       <r>    31.4617     0.0000     0.0000 </r>
       <r>    31.6157     0.0000     0.0000 </r>
       <r>    31.7697     0.0000     0.0000 </r>
       <r>    31.9237     0.0000     0.0000 </r>
       <r>    32.0777     0.0000     0.0000 </r>
       <r>    32.2317     0.0000     0.0000 </r>
       <r>    32.3857     0.0000     0.0000 </r>
       <r>    32.5397     0.0000     0.0000 </r>
       <r>    32.6937     0.0000     0.0000 </r>
       <r>    32.8477     0.0000     0.0000 </r>
       <r>    33.0017     0.0000     0.0000 </r>
       <r>    33.1557     0.0000     0.0000 </r>
       <r>    33.3097     0.0000     0.0000 </r>
       <r>    33.4637     0.0000     0.0000 </r>
       <r>    33.6177     0.0000     0.0000 </r>
       <r>    33.7716     0.0000     0.0000 </r>
       <r>    33.9256     0.0000     0.0000 </r>
       <r>    34.0796     0.0000     0.0000 </r>
       <r>    34.2336     0.0000     0.0000 </r>
       <r>    34.3876     0.0000     0.0000 </r>
       <r>    34.5416     0.0000     0.0000 </r>
       <r>    34.6956     0.0000     0.0000 </r>
       <r>    34.8496     0.0000     0.0000 </r>
       <r>    35.0036     0.0000     0.0000 </r>
       <r>    35.1576     0.0000     0.0000 </r>
       <r>    35.3116     0.0000     0.0000 </r>
       <r>    35.4656     0.0000     0.0000 </r>
       <r>    35.6196     0.0000     0.0000 </r>
       <r>    35.7736     0.0000     0.0000 </r>
       <r>    35.9276     0.0000     0.0000 </r>
      </set>
     </set>
    </array>
   </total>
  </dos>
 </calculation>
 <structure name="finalpos" >
  <crystal>
   <varray name="basis" >
    <v>       0.00000000       3.02920000       3.02920000 </v>
    <v>       3.02920000       0.00000000       3.02920000 </v>
    <v>       3.02920000       3.02920000       0.00000000 </v>
   </varray>
   <i name="volume">     55.59219731 </i>
   <varray name="rec_basis" >
    <v>      -0.16506008       0.16506008       0.16506008 </v>
    <v>       0.16506008      -0.16506008       0.16506008 </v>
    <v>       0.16506008       0.16506008      -0.16506008 </v>
   </varray>
  </crystal>
  <varray name="positions" >
   <v>       0.00000000       0.00000000       0.00000000 </v>
   <v>       0.25000000       0.25000000       0.25000000 </v>
  </varray>
 </structure>
</modeling>
