unknown system                          
   1.00000000000000     
     0.000000    2.984000    2.984000
     2.984000    0.000000    2.984000
     2.984000    2.984000    0.000000
   Eu   S 
     1     1
Direct
  0.000000  0.000000  0.000000
  0.500000  0.500000  0.500000
 
   36   36   36
 0.17919096535E+06 0.10132677566E+04 0.11827622400E+04 0.47743250494E+03 0.27209843524E+03
 0.21554554340E+03 0.15148955360E+03 0.94057754312E+02 0.54421664232E+02 0.30500810336E+02
 0.16982005453E+02 0.96200730351E+01 0.58992101137E+01 0.40460342738E+01 0.31540345850E+01
 0.27285584833E+01 0.25352279005E+01 0.24618809889E+01 0.24452279212E+01 0.24618809889E+01
 0.25352279005E+01 0.27285584833E+01 0.31540345850E+01 0.40460342738E+01 0.58992101137E+01
 0.96200730351E+01 0.16982005453E+02 0.30500810336E+02 0.54421664232E+02 0.94057754312E+02
 0.15148955360E+03 0.21554554340E+03 0.27209843524E+03 0.47743250494E+03 0.11827622400E+04
 0.10132677566E+04 0.10132679535E+04 0.12310929004E+04 0.68640783249E+03 0.31146408608E+03
 0.23892651285E+03 0.17969367995E+03 0.11750577665E+03 0.70030454970E+02 0.39804888877E+02
 0.22232704989E+02 0.12370293643E+02 0.73434140485E+01 0.47642194356E+01 0.35076123596E+01
 0.29080722107E+01 0.26261202772E+01 0.25050018315E+01 0.24659339373E+01 0.24674018764E+01
 0.25070069459E+01 0.26253850900E+01 0.29057618205E+01 0.35073804210E+01 0.47663117069E+01
 0.73445049450E+01 0.12369081714E+02 0.22231966419E+02 0.39806738700E+02 0.70033172502E+02
 0.11750726376E+03 0.17969524152E+03 0.23893043147E+03 0.31147085066E+03 0.68642269318E+03
 0.12311342721E+04 0.10132687579E+04 0.11827625669E+04 0.68640830361E+03 0.33470830117E+03
 0.25072627334E+03 0.19755615819E+03 0.13604712338E+03 0.84165060651E+02 0.48969771840E+02
 0.27704083440E+02 0.15337443707E+02 0.90009971385E+01 0.56362444421E+01 0.39559673703E+01
 0.31481896340E+01 0.27679951268E+01 0.25975219406E+01 0.25312887620E+01 0.25153092292E+01
 0.25314749115E+01 0.25976734942E+01 0.27680007440E+01 0.31481538689E+01 0.39560038045E+01
 0.56364365509E+01 0.90015619068E+01 0.15338555545E+02 0.27705674154E+02 0.48971345246E+02
 0.84166734042E+02 0.13604971592E+03 0.19756016099E+03 0.25073191561E+03 0.33471993946E+03
 0.68644257203E+03 0.11828266747E+04 0.12311343010E+04 0.47743238704E+03 0.31146457467E+03
 0.25072690411E+03 0.20355707773E+03 0.14619313615E+03 0.94064945579E+02 0.56415504271E+02
 0.32600565735E+02 0.18598050710E+02 0.10683062202E+02 0.65783302109E+01 0.44690045365E+01
 0.34362524313E+01 0.29457004132E+01 0.27228016764E+01 0.26321239451E+01 0.26025538348E+01
 0.26014286049E+01 0.26306296380E+01 0.27235188604E+01 0.29477018037E+01 0.34365951928E+01
 0.44675257629E+01 0.65780386200E+01 0.10685522403E+02 0.18601197019E+02 0.32601980160E+02
 0.56415964925E+02 0.94066711624E+02 0.14619642028E+03 0.20356073025E+03 0.25073254485E+03
 0.31147871245E+03 0.47746061922E+03 0.68644240597E+03 0.68642235892E+03 0.27209781149E+03
 0.23892632026E+03 0.19755667802E+03 0.14619372229E+03 0.97623624961E+02 0.60607601341E+02
 0.36021682924E+02 0.20984824265E+02 0.12151835186E+02 0.74693917743E+01 0.49850023943E+01
 0.37418305671E+01 0.31450161405E+01 0.28702131577E+01 0.27545378651E+01 0.27144002361E+01
 0.27058099231E+01 0.27143327212E+01 0.27545000678E+01 0.28703198549E+01 0.31453099169E+01
 0.37422482273E+01 0.49854750224E+01 0.74700794670E+01 0.12153189617E+02 0.20987383177E+02
 0.36025081980E+02 0.60610770931E+02 0.97625791694E+02 0.14619543300E+03 0.19755951966E+03
 0.23893174664E+03 0.27210627056E+03 0.31147887556E+03 0.33472008051E+03 0.31147054006E+03
 0.21554517813E+03 0.17969306351E+03 0.13604697069E+03 0.94065313155E+02 0.60607937251E+02
 0.37252590649E+02 0.22313299223E+02 0.13157116889E+02 0.81721079987E+01 0.54345218308E+01
 0.40255106671E+01 0.33388262936E+01 0.30228498370E+01 0.28898529456E+01 0.28420586720E+01
 0.28294869464E+01 0.28302461989E+01 0.28430862074E+01 0.28894610157E+01 0.30217416548E+01
 0.33390432863E+01 0.40271431324E+01 0.54355860757E+01 0.81719960711E+01 0.13158103882E+02
 0.22317751564E+02 0.37259114728E+02 0.60613162951E+02 0.94067850758E+02 0.13604830035E+03
 0.17969466980E+03 0.21554677942E+03 0.23893169773E+03 0.25073280200E+03 0.25073249664E+03
 0.23893074457E+03 0.15148993237E+03 0.11750562571E+03 0.84164654397E+02 0.56415269184E+02
 0.36021712785E+02 0.22313379564E+02 0.13513591171E+02 0.85580800271E+01 0.57419276563E+01
 0.42486474309E+01 0.35042373696E+01 0.31595032664E+01 0.30190337439E+01 0.29740261715E+01
 0.29648366694E+01 0.29641341381E+01 0.29648448862E+01 0.29741398862E+01 0.30192305462E+01
 0.31596667188E+01 0.35044264997E+01 0.42491134855E+01 0.57428511766E+01 0.85595745510E+01
 0.13516007982E+02 0.22317669129E+02 0.36027885582E+02 0.56422179255E+02 0.84170358490E+02
 0.11750867510E+03 0.15149024034E+03 0.17969461222E+03 0.19755933547E+03 0.20356069378E+03
 0.19756055756E+03 0.17969588987E+03 0.94058285851E+02 0.70030927466E+02 0.48969808264E+02
 0.32600275225E+02 0.20984564844E+02 0.13157027956E+02 0.85580561779E+01 0.58501039751E+01
 0.43705084675E+01 0.36170650717E+01 0.32652824768E+01 0.31261569857E+01 0.30910090268E+01
 0.30952263622E+01 0.31037883754E+01 0.31034221692E+01 0.30948237781E+01 0.30914577141E+01
 0.31269779490E+01 0.32654133797E+01 0.36167616214E+01 0.43711526600E+01 0.58520684635E+01
 0.85600805384E+01 0.13158334284E+02 0.20987038307E+02 0.32606098536E+02 0.48978833013E+02
 0.70039984150E+02 0.94063928735E+02 0.11750875739E+03 0.13604842779E+03 0.14619538696E+03
 0.14619611689E+03 0.13604943846E+03 0.11750739697E+03 0.54421560865E+02 0.39805185946E+02
 0.27704455472E+02 0.18598240701E+02 0.12151837480E+02 0.81720157281E+01 0.57418002336E+01
 0.43704091912E+01 0.36564035392E+01 0.33227866732E+01 0.31981671866E+01 0.31794290644E+01
 0.32025663011E+01 0.32290631691E+01 0.32397572857E+01 0.32291962439E+01 0.32027490845E+01
 0.31795850614E+01 0.31982963322E+01 0.33229846114E+01 0.36568674999E+01 0.43713541299E+01
 0.57432273973E+01 0.81736195311E+01 0.12153426322E+02 0.18600766863E+02 0.27709162000E+02
 0.39812609951E+02 0.54430249080E+02 0.70039947407E+02 0.84170408440E+02 0.94068085674E+02
 0.97626038801E+02 0.94066635874E+02 0.84166267648E+02 0.70032681230E+02 0.30500308298E+02
 0.22232357673E+02 0.15337471684E+02 0.10683389668E+02 0.74697380327E+01 0.54346517203E+01
 0.42485509034E+01 0.36169062538E+01 0.33227056445E+01 0.32231595575E+01 0.32268849881E+01
 0.32734850193E+01 0.33233358004E+01 0.33533898794E+01 0.33535184134E+01 0.33235385583E+01
 0.32735483730E+01 0.32269467521E+01 0.32234187338E+01 0.33230259687E+01 0.36172026170E+01
 0.42494049047E+01 0.54368427487E+01 0.74729783457E+01 0.10686191271E+02 0.15338819325E+02
 0.22233824163E+02 0.30503733744E+02 0.39812591687E+02 0.48978729754E+02 0.56422038994E+02
 0.60613164973E+02 0.60611014148E+02 0.56416282582E+02 0.48971423799E+02 0.39806434616E+02
 0.16981962574E+02 0.12369892271E+02 0.90005687107E+01 0.65781935592E+01 0.49851612470E+01
 0.40257154646E+01 0.35042969810E+01 0.32652245801E+01 0.31981110153E+01 0.32268734609E+01
 0.32979903679E+01 0.33736951345E+01 0.34287532029E+01 0.34486711970E+01 0.34287240110E+01
 0.33736901561E+01 0.32981174177E+01 0.32271928186E+01 0.31985154073E+01 0.32655812517E+01
 0.35048403243E+01 0.40271349069E+01 0.49879563673E+01 0.65818552654E+01 0.90037131761E+01
 0.12371518659E+02 0.16982856946E+02 0.22233846232E+02 0.27709187114E+02 0.32606045882E+02
 0.36027701091E+02 0.37258880311E+02 0.36024997342E+02 0.32602193258E+02 0.27706102390E+02
 0.22232302099E+02 0.96205748540E+01 0.73436233618E+01 0.56360236903E+01 0.44686078752E+01
 0.37415819307E+01 0.33388036934E+01 0.31595737893E+01 0.31262029308E+01 0.31794435223E+01
 0.32734987847E+01 0.33737091049E+01 0.34549365628E+01 0.35001112898E+01 0.35001690411E+01
 0.34550135233E+01 0.33736763522E+01 0.32734667109E+01 0.31797297114E+01 0.31269112657E+01
 0.31603392300E+01 0.33392651456E+01 0.37421586967E+01 0.44704318029E+01 0.56397516402E+01
 0.73484251373E+01 0.96246298126E+01 0.12371519694E+02 0.15338843958E+02 0.18600815645E+02
 0.20987096974E+02 0.22317697805E+02 0.22317665086E+02 0.20987134662E+02 0.18600926747E+02
 0.15338548701E+02 0.12369458950E+02 0.58994375576E+01 0.47646982638E+01 0.39563303164E+01
 0.34363059527E+01 0.31448356538E+01 0.30226244471E+01 0.30188896848E+01 0.30909624073E+01
 0.32025767849E+01 0.33233650437E+01 0.34287798658E+01 0.35001238029E+01 0.35253237039E+01
 0.35001870016E+01 0.34288981259E+01 0.33233726115E+01 0.32023604061E+01 0.30908504118E+01
 0.30194070554E+01 0.30237119265E+01 0.31457788907E+01 0.34368083010E+01 0.39572847466E+01
 0.47672993969E+01 0.59035852136E+01 0.73484108641E+01 0.90037142220E+01 0.10686208771E+02
 0.12153442476E+02 0.13158392028E+02 0.13516175884E+02 0.13158307724E+02 0.12153188962E+02
 0.10685176647E+02 0.90010750906E+01 0.73442790380E+01 0.40456076512E+01 0.35075833937E+01
 0.31486043481E+01 0.29462307064E+01 0.28704698640E+01 0.28897336014E+01 0.29737359158E+01
 0.30950131748E+01 0.32290054372E+01 0.33534200907E+01 0.34487078711E+01 0.35001812656E+01
 0.35001820642E+01 0.34488152998E+01 0.33535788437E+01 0.32287602575E+01 0.30943222530E+01
 0.29737206164E+01 0.28916774367E+01 0.28738723615E+01 0.29486950326E+01 0.31482992943E+01
 0.35054225786E+01 0.40443618626E+01 0.47672879069E+01 0.56397446882E+01 0.65818721614E+01
 0.74730034501E+01 0.81736076213E+01 0.85600305923E+01 0.85595757973E+01 0.81721472744E+01
 0.74703396690E+01 0.65781915722E+01 0.56362657630E+01 0.47658487132E+01 0.31536412979E+01
 0.29075966164E+01 0.27678791559E+01 0.27230847558E+01 0.27548771647E+01 0.28421435350E+01
 0.29646754049E+01 0.31035967668E+01 0.32396845070E+01 0.33535454765E+01 0.34287635581E+01
 0.34550194395E+01 0.34288782306E+01 0.33535592487E+01 0.32393349449E+01 0.31031048304E+01
 0.29651320187E+01 0.28447807185E+01 0.27594439367E+01 0.27272270681E+01 0.27688718569E+01
 0.29049764743E+01 0.31497989994E+01 0.35054111102E+01 0.39572938942E+01 0.44704592933E+01
 0.49879825090E+01 0.54368665915E+01 0.57432361860E+01 0.58519970092E+01 0.57426632745E+01
 0.54354153434E+01 0.49855715371E+01 0.44679582584E+01 0.39564701621E+01 0.35074561024E+01
 0.27288353849E+01 0.26260054471E+01 0.25972099630E+01 0.26318878766E+01 0.27143329368E+01
 0.28295001370E+01 0.29641317714E+01 0.31034006640E+01 0.32291944989E+01 0.33235626518E+01
 0.33737136781E+01 0.33736798618E+01 0.33233566179E+01 0.32287355761E+01 0.31030868168E+01
 0.29649138344E+01 0.28321580621E+01 0.27184343860E+01 0.26356438678E+01 0.25987789493E+01
 0.26251022354E+01 0.27268852910E+01 0.29049457844E+01 0.31482810794E+01 0.34368390851E+01
 0.37422072312E+01 0.40271479652E+01 0.42493990260E+01 0.43713902714E+01 0.43712035991E+01
 0.42490405425E+01 0.40268821742E+01 0.37419795129E+01 0.34366204905E+01 0.31485656651E+01
 0.29062963842E+01 0.25357212412E+01 0.25054972621E+01 0.25315063918E+01 0.26024307878E+01
 0.27055007138E+01 0.28299718438E+01 0.29647308301E+01 0.30948461312E+01 0.32028074098E+01
 0.32735754645E+01 0.32981179041E+01 0.32734704923E+01 0.32023716115E+01 0.30943243155E+01
 0.29651204266E+01 0.28321464236E+01 0.27089615486E+01 0.26052742577E+01 0.25320223764E+01
 0.25038404000E+01 0.25337735529E+01 0.26250794127E+01 0.27688382048E+01 0.29486811529E+01
 0.31458009666E+01 0.33392968913E+01 0.35048384802E+01 0.36171729384E+01 0.36568838020E+01
 0.36168790516E+01 0.35045698754E+01 0.33390306953E+01 0.31450398789E+01 0.29473127636E+01
 0.27677968230E+01 0.26255717535E+01 0.24617857059E+01 0.24663247816E+01 0.25159644889E+01
 0.26018779686E+01 0.27143036661E+01 0.28427335515E+01 0.29738189007E+01 0.30913531556E+01
 0.31796199947E+01 0.32269792235E+01 0.32271863731E+01 0.31797284244E+01 0.30908783375E+01
 0.29737557400E+01 0.28447958964E+01 0.27184276139E+01 0.26052631341E+01 0.25154108095E+01
 0.24615605941E+01 0.24560578074E+01 0.25038261625E+01 0.25987644273E+01 0.27272266945E+01
 0.28738821763E+01 0.30237196375E+01 0.31603416204E+01 0.32655789718E+01 0.33230121432E+01
 0.33229585507E+01 0.32654052813E+01 0.31597262907E+01 0.30218753449E+01 0.28704307106E+01
 0.27234436399E+01 0.25973476144E+01 0.25066180150E+01 0.24447015738E+01 0.24671540862E+01
 0.25317559301E+01 0.26311416352E+01 0.27547822081E+01 0.28893741694E+01 0.30189901809E+01
 0.31268259918E+01 0.31982752372E+01 0.32234381053E+01 0.31985138752E+01 0.31269034036E+01
 0.30194238955E+01 0.28917144630E+01 0.27594700008E+01 0.26356415036E+01 0.25320059380E+01
 0.24615524774E+01 0.24363555661E+01 0.24615524774E+01 0.25320059380E+01 0.26356415036E+01
 0.27594700008E+01 0.28917144630E+01 0.30194238955E+01 0.31269034036E+01 0.31985138752E+01
 0.32234381053E+01 0.31982752372E+01 0.31268259918E+01 0.30189901809E+01 0.28893741694E+01
 0.27547822081E+01 0.26311416352E+01 0.25317559301E+01 0.24671540862E+01 0.24617857059E+01
 0.25066180150E+01 0.25973476144E+01 0.27234436399E+01 0.28704307106E+01 0.30218753449E+01
 0.31597262907E+01 0.32654052813E+01 0.33229585507E+01 0.33230121432E+01 0.32655789718E+01
 0.31603416204E+01 0.30237196375E+01 0.28738821763E+01 0.27272266945E+01 0.25987644273E+01
 0.25038261625E+01 0.24560578074E+01 0.24615605941E+01 0.25154108095E+01 0.26052631341E+01
 0.27184276139E+01 0.28447958964E+01 0.29737557400E+01 0.30908783375E+01 0.31797284244E+01
 0.32271863731E+01 0.32269792235E+01 0.31796199947E+01 0.30913531556E+01 0.29738189007E+01
 0.28427335515E+01 0.27143036661E+01 0.26018779686E+01 0.25159644889E+01 0.24663247816E+01
 0.25357212412E+01 0.26255717535E+01 0.27677968230E+01 0.29473127636E+01 0.31450398789E+01
 0.33390306953E+01 0.35045698754E+01 0.36168790516E+01 0.36568838020E+01 0.36171729384E+01
 0.35048384802E+01 0.33392968913E+01 0.31458009666E+01 0.29486811529E+01 0.27688382048E+01
 0.26250794127E+01 0.25337735529E+01 0.25038404000E+01 0.25320223764E+01 0.26052742577E+01
 0.27089615486E+01 0.28321464236E+01 0.29651204266E+01 0.30943243155E+01 0.32023716115E+01
 0.32734704923E+01 0.32981179041E+01 0.32735754645E+01 0.32028074098E+01 0.30948461312E+01
 0.29647308301E+01 0.28299718438E+01 0.27055007138E+01 0.26024307878E+01 0.25315063918E+01
 0.25054972621E+01 0.27288353849E+01 0.29062963842E+01 0.31485656651E+01 0.34366204905E+01
 0.37419795129E+01 0.40268821742E+01 0.42490405425E+01 0.43712035991E+01 0.43713902714E+01
 0.42493990260E+01 0.40271479652E+01 0.37422072312E+01 0.34368390851E+01 0.31482810794E+01
 0.29049457844E+01 0.27268852910E+01 0.26251022354E+01 0.25987789493E+01 0.26356438678E+01
 0.27184343860E+01 0.28321580621E+01 0.29649138344E+01 0.31030868168E+01 0.32287355761E+01
 0.33233566179E+01 0.33736798618E+01 0.33737136781E+01 0.33235626518E+01 0.32291944989E+01
 0.31034006640E+01 0.29641317714E+01 0.28295001370E+01 0.27143329368E+01 0.26318878766E+01
 0.25972099630E+01 0.26260054471E+01 0.31536412979E+01 0.35074561024E+01 0.39564701621E+01
 0.44679582584E+01 0.49855715371E+01 0.54354153434E+01 0.57426632745E+01 0.58519970092E+01
 0.57432361860E+01 0.54368665915E+01 0.49879825090E+01 0.44704592933E+01 0.39572938942E+01
 0.35054111102E+01 0.31497989994E+01 0.29049764743E+01 0.27688718569E+01 0.27272270681E+01
 0.27594439367E+01 0.28447807185E+01 0.29651320187E+01 0.31031048304E+01 0.32393349449E+01
 0.33535592487E+01 0.34288782306E+01 0.34550194395E+01 0.34287635581E+01 0.33535454765E+01
 0.32396845070E+01 0.31035967668E+01 0.29646754049E+01 0.28421435350E+01 0.27548771647E+01
 0.27230847558E+01 0.27678791559E+01 0.29075966164E+01 0.40456076512E+01 0.47658487132E+01
 0.56362657630E+01 0.65781915722E+01 0.74703396690E+01 0.81721472744E+01 0.85595757973E+01
 0.85600305923E+01 0.81736076213E+01 0.74730034501E+01 0.65818721614E+01 0.56397446882E+01
 0.47672879069E+01 0.40443618626E+01 0.35054225786E+01 0.31482992943E+01 0.29486950326E+01
 0.28738723615E+01 0.28916774367E+01 0.29737206164E+01 0.30943222530E+01 0.32287602575E+01
 0.33535788437E+01 0.34488152998E+01 0.35001820642E+01 0.35001812656E+01 0.34487078711E+01
 0.33534200907E+01 0.32290054372E+01 0.30950131748E+01 0.29737359158E+01 0.28897336014E+01
 0.28704698640E+01 0.29462307064E+01 0.31486043481E+01 0.35075833937E+01 0.58994375576E+01
 0.73442790380E+01 0.90010750906E+01 0.10685176647E+02 0.12153188962E+02 0.13158307724E+02
 0.13516175884E+02 0.13158392028E+02 0.12153442476E+02 0.10686208771E+02 0.90037142220E+01
 0.73484108641E+01 0.59035852136E+01 0.47672993969E+01 0.39572847466E+01 0.34368083010E+01
 0.31457788907E+01 0.30237119265E+01 0.30194070554E+01 0.30908504118E+01 0.32023604061E+01
 0.33233726115E+01 0.34288981259E+01 0.35001870016E+01 0.35253237039E+01 0.35001238029E+01
 0.34287798658E+01 0.33233650437E+01 0.32025767849E+01 0.30909624073E+01 0.30188896848E+01
 0.30226244471E+01 0.31448356538E+01 0.34363059527E+01 0.39563303164E+01 0.47646982638E+01
 0.96205748540E+01 0.12369458950E+02 0.15338548701E+02 0.18600926747E+02 0.20987134662E+02
 0.22317665086E+02 0.22317697805E+02 0.20987096974E+02 0.18600815645E+02 0.15338843958E+02
 0.12371519694E+02 0.96246298126E+01 0.73484251373E+01 0.56397516402E+01 0.44704318029E+01
 0.37421586967E+01 0.33392651456E+01 0.31603392300E+01 0.31269112657E+01 0.31797297114E+01
 0.32734667109E+01 0.33736763522E+01 0.34550135233E+01 0.35001690411E+01 0.35001112898E+01
 0.34549365628E+01 0.33737091049E+01 0.32734987847E+01 0.31794435223E+01 0.31262029308E+01
 0.31595737893E+01 0.33388036934E+01 0.37415819307E+01 0.44686078752E+01 0.56360236903E+01
 0.73436233618E+01 0.16981962574E+02 0.22232302099E+02 0.27706102390E+02 0.32602193258E+02
 0.36024997342E+02 0.37258880311E+02 0.36027701091E+02 0.32606045882E+02 0.27709187114E+02
 0.22233846232E+02 0.16982856946E+02 0.12371518659E+02 0.90037131761E+01 0.65818552654E+01
 0.49879563673E+01 0.40271349069E+01 0.35048403243E+01 0.32655812517E+01 0.31985154073E+01
 0.32271928186E+01 0.32981174177E+01 0.33736901561E+01 0.34287240110E+01 0.34486711970E+01
 0.34287532029E+01 0.33736951345E+01 0.32979903679E+01 0.32268734609E+01 0.31981110153E+01
 0.32652245801E+01 0.35042969810E+01 0.40257154646E+01 0.49851612470E+01 0.65781935592E+01
 0.90005687107E+01 0.12369892271E+02 0.30500308298E+02 0.39806434616E+02 0.48971423799E+02
 0.56416282582E+02 0.60611014148E+02 0.60613164973E+02 0.56422038994E+02 0.48978729754E+02
 0.39812591687E+02 0.30503733744E+02 0.22233824163E+02 0.15338819325E+02 0.10686191271E+02
 0.74729783457E+01 0.54368427487E+01 0.42494049047E+01 0.36172026170E+01 0.33230259687E+01
 0.32234187338E+01 0.32269467521E+01 0.32735483730E+01 0.33235385583E+01 0.33535184134E+01
 0.33533898794E+01 0.33233358004E+01 0.32734850193E+01 0.32268849881E+01 0.32231595575E+01
 0.33227056445E+01 0.36169062538E+01 0.42485509034E+01 0.54346517203E+01 0.74697380327E+01
 0.10683389668E+02 0.15337471684E+02 0.22232357673E+02 0.54421560865E+02 0.70032681230E+02
 0.84166267648E+02 0.94066635874E+02 0.97626038801E+02 0.94068085674E+02 0.84170408440E+02
 0.70039947407E+02 0.54430249080E+02 0.39812609951E+02 0.27709162000E+02 0.18600766863E+02
 0.12153426322E+02 0.81736195311E+01 0.57432273973E+01 0.43713541299E+01 0.36568674999E+01
 0.33229846114E+01 0.31982963322E+01 0.31795850614E+01 0.32027490845E+01 0.32291962439E+01
 0.32397572857E+01 0.32290631691E+01 0.32025663011E+01 0.31794290644E+01 0.31981671866E+01
 0.33227866732E+01 0.36564035392E+01 0.43704091912E+01 0.57418002336E+01 0.81720157281E+01
 0.12151837480E+02 0.18598240701E+02 0.27704455472E+02 0.39805185946E+02 0.94058285851E+02
 0.11750739697E+03 0.13604943846E+03 0.14619611689E+03 0.14619538696E+03 0.13604842779E+03
 0.11750875739E+03 0.94063928735E+02 0.70039984150E+02 0.48978833013E+02 0.32606098536E+02
 0.20987038307E+02 0.13158334284E+02 0.85600805384E+01 0.58520684635E+01 0.43711526600E+01
 0.36167616214E+01 0.32654133797E+01 0.31269779490E+01 0.30914577141E+01 0.30948237781E+01
 0.31034221692E+01 0.31037883754E+01 0.30952263622E+01 0.30910090268E+01 0.31261569857E+01
 0.32652824768E+01 0.36170650717E+01 0.43705084675E+01 0.58501039751E+01 0.85580561779E+01
 0.13157027956E+02 0.20984564844E+02 0.32600275225E+02 0.48969808264E+02 0.70030927466E+02
 0.15148993237E+03 0.17969588987E+03 0.19756055756E+03 0.20356069378E+03 0.19755933547E+03
 0.17969461222E+03 0.15149024034E+03 0.11750867510E+03 0.84170358490E+02 0.56422179255E+02
 0.36027885582E+02 0.22317669129E+02 0.13516007982E+02 0.85595745510E+01 0.57428511766E+01
 0.42491134855E+01 0.35044264997E+01 0.31596667188E+01 0.30192305462E+01 0.29741398862E+01
 0.29648448862E+01 0.29641341381E+01 0.29648366694E+01 0.29740261715E+01 0.30190337439E+01
 0.31595032664E+01 0.35042373696E+01 0.42486474309E+01 0.57419276563E+01 0.85580800271E+01
 0.13513591171E+02 0.22313379564E+02 0.36021712785E+02 0.56415269184E+02 0.84164654397E+02
 0.11750562571E+03 0.21554517813E+03 0.23893074457E+03 0.25073249664E+03 0.25073280200E+03
 0.23893169773E+03 0.21554677942E+03 0.17969466980E+03 0.13604830035E+03 0.94067850758E+02
 0.60613162951E+02 0.37259114728E+02 0.22317751564E+02 0.13158103882E+02 0.81719960711E+01
 0.54355860757E+01 0.40271431324E+01 0.33390432863E+01 0.30217416548E+01 0.28894610157E+01
 0.28430862074E+01 0.28302461989E+01 0.28294869464E+01 0.28420586720E+01 0.28898529456E+01
 0.30228498370E+01 0.33388262936E+01 0.40255106671E+01 0.54345218308E+01 0.81721079987E+01
 0.13157116889E+02 0.22313299223E+02 0.37252590649E+02 0.60607937251E+02 0.94065313155E+02
 0.13604697069E+03 0.17969306351E+03 0.27209781149E+03 0.31147054006E+03 0.33472008051E+03
 0.31147887556E+03 0.27210627056E+03 0.23893174664E+03 0.19755951966E+03 0.14619543300E+03
 0.97625791694E+02 0.60610770931E+02 0.36025081980E+02 0.20987383177E+02 0.12153189617E+02
 0.74700794670E+01 0.49854750224E+01 0.37422482273E+01 0.31453099169E+01 0.28703198549E+01
 0.27545000678E+01 0.27143327212E+01 0.27058099231E+01 0.27144002361E+01 0.27545378651E+01
 0.28702131577E+01 0.31450161405E+01 0.37418305671E+01 0.49850023943E+01 0.74693917743E+01
 0.12151835186E+02 0.20984824265E+02 0.36021682924E+02 0.60607601341E+02 0.97623624961E+02
 0.14619372229E+03 0.19755667802E+03 0.23892632026E+03 0.47743238704E+03 0.68642235892E+03
 0.68644240597E+03 0.47746061922E+03 0.31147871245E+03 0.25073254485E+03 0.20356073025E+03
 0.14619642028E+03 0.94066711624E+02 0.56415964925E+02 0.32601980160E+02 0.18601197019E+02
 0.10685522403E+02 0.65780386200E+01 0.44675257629E+01 0.34365951928E+01 0.29477018037E+01
 0.27235188604E+01 0.26306296380E+01 0.26014286049E+01 0.26025538348E+01 0.26321239451E+01
 0.27228016764E+01 0.29457004132E+01 0.34362524313E+01 0.44690045365E+01 0.65783302109E+01
 0.10683062202E+02 0.18598050710E+02 0.32600565735E+02 0.56415504271E+02 0.94064945579E+02
 0.14619313615E+03 0.20355707773E+03 0.25072690411E+03 0.31146457467E+03 0.11827625669E+04
 0.12311343010E+04 0.11828266747E+04 0.68644257203E+03 0.33471993946E+03 0.25073191561E+03
 0.19756016099E+03 0.13604971592E+03 0.84166734042E+02 0.48971345246E+02 0.27705674154E+02
 0.15338555545E+02 0.90015619068E+01 0.56364365509E+01 0.39560038045E+01 0.31481538689E+01
 0.27680007440E+01 0.25976734942E+01 0.25314749115E+01 0.25153092292E+01 0.25312887620E+01
 0.25975219406E+01 0.27679951268E+01 0.31481896340E+01 0.39559673703E+01 0.56362444421E+01
 0.90009971385E+01 0.15337443707E+02 0.27704083440E+02 0.48969771840E+02 0.84165060651E+02
 0.13604712338E+03 0.19755615819E+03 0.25072627334E+03 0.33470830117E+03 0.68640830361E+03
 0.10132679535E+04 0.10132687579E+04 0.12311342721E+04 0.68642269318E+03 0.31147085066E+03
 0.23893043147E+03 0.17969524152E+03 0.11750726376E+03 0.70033172502E+02 0.39806738700E+02
 0.22231966419E+02 0.12369081714E+02 0.73445049450E+01 0.47663117069E+01 0.35073804210E+01
 0.29057618205E+01 0.26253850900E+01 0.25070069459E+01 0.24674018764E+01 0.24659339373E+01
 0.25050018315E+01 0.26261202772E+01 0.29080722107E+01 0.35076123596E+01 0.47642194356E+01
 0.73434140485E+01 0.12370293643E+02 0.22232704989E+02 0.39804888877E+02 0.70030454970E+02
 0.11750577665E+03 0.17969367995E+03 0.23892651285E+03 0.31146408608E+03 0.68640783249E+03
 0.12310929004E+04 0.10132737134E+04 0.12311436829E+04 0.68642833458E+03 0.31147073848E+03
 0.23892882221E+03 0.17969502771E+03 0.11750695174E+03 0.70031492853E+02 0.39805735380E+02
 0.22233335198E+02 0.12370691907E+02 0.73436374610E+01 0.47643197617E+01 0.35076612398E+01
 0.29081168009E+01 0.26261777386E+01 0.25050720301E+01 0.24660069857E+01 0.24674639397E+01
 0.25070496839E+01 0.26254101277E+01 0.29057738908E+01 0.35073722526E+01 0.47662467142E+01
 0.73443152017E+01 0.12368707477E+02 0.22231348838E+02 0.39805921065E+02 0.70032207796E+02
 0.11750615669E+03 0.17969381610E+03 0.23892780373E+03 0.31146376682E+03 0.68640198881E+03
 0.12310838169E+04 0.10132636432E+04 0.12311431888E+04 0.84047047109E+03 0.36715271348E+03
 0.25689581929E+03 0.20343838541E+03 0.14096000074E+03 0.87264405387E+02 0.50650361667E+02
 0.28535687179E+02 0.15685718577E+02 0.91295811330E+01 0.56455826036E+01 0.39041017420E+01
 0.30645076540E+01 0.26663402347E+01 0.24853610828E+01 0.24137108478E+01 0.23959627380E+01
 0.24135268811E+01 0.24851495933E+01 0.26662300930E+01 0.30644232260E+01 0.39038891823E+01
 0.56453572874E+01 0.91296795901E+01 0.15686070874E+02 0.28535620475E+02 0.50649693850E+02
 0.87264549621E+02 0.14096273592E+03 0.20344270998E+03 0.25689699203E+03 0.36714633704E+03
 0.84045824558E+03 0.12311332763E+04 0.10364634027E+04 0.68642810155E+03 0.36715261092E+03
 0.26377690750E+03 0.21529621487E+03 0.15671715097E+03 0.10117503307E+03 0.60473602659E+02
 0.34697100748E+02 0.19595558057E+02 0.11073327361E+02 0.66738439290E+01 0.44093869723E+01
 0.32966479811E+01 0.27623220520E+01 0.25136675481E+01 0.24086653983E+01 0.23729607173E+01
 0.23716496113E+01 0.24068086422E+01 0.25141538609E+01 0.27642241931E+01 0.32967747317E+01
 0.44075044789E+01 0.66731393668E+01 0.11075327751E+02 0.19597664102E+02 0.34696644073E+02
 0.60472222526E+02 0.10117647462E+03 0.15672178280E+03 0.21530037471E+03 0.26377826043E+03
 0.36715552613E+03 0.68644209823E+03 0.10184759854E+04 0.10184626012E+04 0.31147076530E+03
 0.25689590965E+03 0.21529646005E+03 0.16222065968E+03 0.10894208400E+03 0.67380693378E+02
 0.39676884545E+02 0.22808931729E+02 0.12924485310E+02 0.77305674715E+01 0.49672873786E+01
 0.35781904126E+01 0.29030467739E+01 0.25826272942E+01 0.24399029020E+01 0.23860026730E+01
 0.23734440760E+01 0.23860604185E+01 0.24399221670E+01 0.25826148710E+01 0.29031325218E+01
 0.35784049389E+01 0.49675374052E+01 0.77309610276E+01 0.12925390786E+02 0.22810522925E+02
 0.39678440034E+02 0.67381411466E+02 0.10894231048E+03 0.16222191010E+03 0.21529993456E+03
 0.25690179736E+03 0.31147961116E+03 0.41323780839E+03 0.47748595865E+03 0.41322796825E+03
 0.23892860208E+03 0.20343835991E+03 0.15671755270E+03 0.10894256252E+03 0.69874162045E+02
 0.42475810414E+02 0.25041815610E+02 0.14384113777E+02 0.86606802379E+01 0.55051612235E+01
 0.38708607851E+01 0.30623836151E+01 0.26761770115E+01 0.25002575523E+01 0.24276477601E+01
 0.24040976789E+01 0.24049721520E+01 0.24288462526E+01 0.24998468478E+01 0.26749144458E+01
 0.30625233657E+01 0.38724919135E+01 0.55061225288E+01 0.86602976506E+01 0.14384582614E+02
 0.25044982397E+02 0.42479741518E+02 0.69875953278E+02 0.10894253975E+03 0.15671873811E+03
 0.20344205326E+03 0.23893298343E+03 0.26422040140E+03 0.28223223114E+03 0.28223097995E+03
 0.26421719509E+03 0.17969464574E+03 0.14095963575E+03 0.10117507439E+03 0.67381148238E+02
 0.42476228142E+02 0.25844280706E+02 0.15189612294E+02 0.92985279380E+01 0.59326139828E+01
 0.41325224303E+01 0.32180279493E+01 0.27741699376E+01 0.25718929566E+01 0.24882906548E+01
 0.24579966184E+01 0.24506431563E+01 0.24579829206E+01 0.24883160124E+01 0.25719541381E+01
 0.27742586393E+01 0.32182407524E+01 0.41329379144E+01 0.59331870704E+01 0.92994129857E+01
 0.15191448526E+02 0.25848063053E+02 0.42481423416E+02 0.67386046573E+02 0.10117802609E+03
 0.14096042654E+03 0.17969429570E+03 0.20971622913E+03 0.22759843955E+03 0.23346872631E+03
 0.22759863531E+03 0.20971668919E+03 0.11750701081E+03 0.87264114202E+02 0.60473184961E+02
 0.39676737563E+02 0.25042049223E+02 0.15189892267E+02 0.95256382850E+01 0.61681336333E+01
 0.43127260089E+01 0.33439896321E+01 0.28633775321E+01 0.26416743545E+01 0.25520505312E+01
 0.25225013690E+01 0.25147906677E+01 0.25143508987E+01 0.25219729566E+01 0.25524497110E+01
 0.26424903969E+01 0.28634341874E+01 0.33434955692E+01 0.43130558963E+01 0.61697137256E+01
 0.95275260230E+01 0.15191756219E+02 0.25045638471E+02 0.39682841053E+02 0.60480173675E+02
 0.87269031088E+02 0.11750860609E+03 0.14630391986E+03 0.16830537538E+03 0.17997279392E+03
 0.17997307767E+03 0.16830614995E+03 0.14630440628E+03 0.70032025481E+02 0.50650602890E+02
 0.34696826689E+02 0.22808457981E+02 0.14383914600E+02 0.92986657922E+01 0.61682935950E+01
 0.43766083759E+01 0.34133545929E+01 0.29256646644E+01 0.26987986468E+01 0.26092326468E+01
 0.25845457984E+01 0.25829183588E+01 0.25842036991E+01 0.25829387734E+01 0.25846906253E+01
 0.26094653625E+01 0.26989342263E+01 0.29257253607E+01 0.34137461390E+01 0.43776977778E+01
 0.61698608454E+01 0.93000955342E+01 0.14385136000E+02 0.22811029168E+02 0.34702054735E+02
 0.50658380079E+02 0.70040005451E+02 0.90715532597E+02 0.10928517620E+03 0.12214919831E+03
 0.12673739840E+03 0.12214948558E+03 0.10928355344E+03 0.90710268294E+02 0.39806010304E+02
 0.28536163307E+02 0.19595835042E+02 0.12924421906E+02 0.86604701367E+01 0.59324885074E+01
 0.43127199629E+01 0.34133749035E+01 0.29476473125E+01 0.27303142912E+01 0.26488844389E+01
 0.26340483638E+01 0.26430196096E+01 0.26523728121E+01 0.26525247375E+01 0.26432532128E+01
 0.26340845764E+01 0.26488691979E+01 0.27305659143E+01 0.29481638730E+01 0.34140031599E+01
 0.43136173058E+01 0.59338905839E+01 0.86620938980E+01 0.12925787106E+02 0.19597787227E+02
 0.28540092870E+02 0.39812577646E+02 0.52608301633E+02 0.65269508292E+02 0.75563676714E+02
 0.81356658609E+02 0.81355793926E+02 0.75560483044E+02 0.65263437118E+02 0.52600663458E+02
 0.22232985396E+02 0.15685745374E+02 0.11073681395E+02 0.77309568043E+01 0.55053233937E+01
 0.41324324713E+01 0.33438193448E+01 0.29255701358E+01 0.27303025612E+01 0.26627945107E+01