unknown system                          
   1.00000000000000     
     0.000000    2.816500    2.816500
     2.816500    0.000000    2.816500
     2.816500    2.816500    0.000000
   Ge
     2
Direct
  0.000000  0.000000  0.000000
  0.250000  0.250000  0.250000
 
   48   48   48
 -6.6146     -5.8374     -3.6198     -.28163      3.7102      7.8291      11.582      14.589      16.627      17.637    
  17.699      16.996      15.768      14.274      12.765      11.425      10.273      9.2923      8.4722      7.8033    
  7.2764      6.8816      6.6088      6.4491      6.3966      6.4491      6.6088      6.8816      7.2764      7.8033    
  8.4722      9.2923      10.273      11.425      12.765      14.274      15.768      16.996      17.699      17.637    
  16.627      14.589      11.582      7.8291      3.7102     -.28163     -3.6198     -5.8374     -5.8374     -4.3593    
 -1.6106      2.0301      6.0809      10.042      13.476      16.076      17.686      18.303      18.045      17.118    
  15.775      14.280      12.871      11.646      10.591      9.6958      8.9517      8.3518      7.8882      7.5517    
  7.3335      7.2264      7.2264      7.3335      7.5517      7.8882      8.3518      8.9517      9.6958      10.591    
  11.646      12.871      14.280      15.775      17.118      18.045      18.303      17.686      16.076      13.476    
  10.042      6.0809      2.0301     -1.6106     -4.3593     -5.8374     -3.6198     -1.6106      1.4341      5.1127    
  8.9624      12.536      15.472      17.536      18.638      18.822      18.242      17.120      15.717      14.291    
  13.019      11.913      10.962      10.158      9.4958      8.9705      8.5745      8.2996      8.1382      8.0850    
  8.1382      8.2996      8.5745      8.9705      9.4958      10.158      10.962      11.913      13.019      14.291    
  15.717      17.120      18.242      18.822      18.638      17.536      15.472      12.536      8.9624      5.1127    
  1.4341     -1.6106     -3.6197     -4.3215     -.28163      2.0301      5.1127      8.5748      12.000      15.011    
  17.325      18.781      19.347      19.110      18.248      16.999      15.620      14.335      13.207      12.226    
  11.383      10.677      10.103      9.6570      9.3318      9.1201      9.0159      9.0159      9.1201      9.3318    
  9.6570      10.103      10.677      11.383      12.226      13.207      14.335      15.620      16.999      18.248    
  19.110      19.347      18.781      17.325      15.011      12.000      8.5748      5.1127      2.0301     -.28163    
 -1.5198     -1.5198      3.7102      6.0809      8.9624      12.000      14.840      17.183      18.820      19.658    
  19.716      19.117      18.061      16.786      15.532      14.416      13.435      12.582      11.855      11.252    
  10.771      10.408      10.154      10.005      9.9559      10.005      10.154      10.408      10.771      11.252    
  11.855      12.582      13.435      14.416      15.532      16.786      18.061      19.117      19.716      19.658    
  18.820      17.183      14.840      12.000      8.9624      6.0809      3.7102      2.1524      1.6095      2.1524    
  7.8291      10.042      12.536      15.011      17.183      18.825      19.800      20.071      19.704      18.852    
  17.723      16.546      15.479      14.533      13.701      12.982      12.375      11.882      11.497      11.216    
  11.032      10.941      10.941      11.032      11.216      11.497      11.882      12.375      12.982      13.701    
  14.533      15.479      16.546      17.723      18.852      19.704      20.071      19.800      18.825      17.183    
  15.011      12.536      10.042      7.8291      6.1760      5.2928      5.2928      6.1760      11.582      13.476    
  15.472      17.325      18.820      19.800      20.187      19.999      19.339      18.377      17.319      16.339    
  15.462      14.685      14.005      13.425      12.944      12.560      12.264      12.053      11.926      11.884    
  11.926      12.053      12.264      12.560      12.944      13.425      14.005      14.685      15.462      16.339    
  17.319      18.377      19.339      19.999      20.187      19.800      18.820      17.325      15.472      13.476    
  11.582      10.027      9.0063      8.6511      9.0063      10.027      14.589      16.076      17.536      18.781    
  19.658      20.071      19.999      19.503      18.713      17.804      16.943      16.170      15.479      14.872    
  14.348      13.908      13.543      13.244      13.014      12.856      12.776      12.776      12.856      13.014    
  13.244      13.543      13.908      14.348      14.872      15.479      16.170      16.943      17.804      18.713    
  19.503      19.999      20.071      19.658      18.781      17.536      16.076      14.589      13.266      12.278    
  11.750      11.750      12.278      13.266      16.627      17.686      18.638      19.347      19.716      19.704    
  19.339      18.713      17.969      17.255      16.613      16.038      15.532      15.095      14.721      14.393    
  14.108      13.869      13.687      13.572      13.533      13.572      13.687      13.869      14.108      14.393    
  14.721      15.095      15.532      16.038      16.613      17.255      17.969      18.713      19.339      19.704    
  19.716      19.347      18.638      17.686      16.627      15.607      14.764      14.210      14.017      14.210    
  14.764      15.607      17.637      18.303      18.822      19.110      19.117      18.852      18.377      17.804    
  17.255      16.764      16.327      15.946      15.620      15.335      15.068      14.815      14.583      14.388    
  14.246      14.172      14.172      14.246      14.388      14.583      14.815      15.068      15.335      15.620    
  15.946      16.327      16.764      17.255      17.804      18.377      18.852      19.117      19.110      18.822    
  18.303      17.637      16.930      16.289      15.806      15.547      15.547      15.806      16.289      16.930    
  17.699      18.045      18.242      18.248      18.061      17.723      17.319      16.943      16.613      16.327    
  16.087      15.891      15.717      15.536      15.338      15.134      14.942      14.784      14.680      14.644    
  14.680      14.784      14.942      15.134      15.338      15.536      15.717      15.891      16.087      16.327    
  16.613      16.943      17.319      17.723      18.061      18.248      18.242      18.045      17.699      17.273    
  16.842      16.476      16.233      16.148      16.233      16.476      16.842      17.273      16.996      17.118    
  17.120      16.999      16.786      16.546      16.339      16.170      16.038      15.946      15.891      15.847    
  15.775      15.659      15.507      15.339      15.181      15.060      14.994      14.994      15.060      15.181    
  15.339      15.507      15.659      15.775      15.847      15.891      15.946      16.038      16.170      16.339    
  16.546      16.786      16.999      17.120      17.118      16.996      16.788      16.538      16.298      16.111    
  16.010      16.010      16.111      16.298      16.538      16.788      15.768      15.775      15.717      15.620    
  15.532      15.479      15.462      15.479      15.532      15.620      15.717      15.775      15.768      15.695    
  15.577      15.442      15.320      15.236      15.206      15.236      15.320      15.442      15.577      15.695    
  15.768      15.775      15.717      15.620      15.532      15.479      15.462      15.479      15.532      15.620    
  15.717      15.775      15.768      15.695      15.577      15.442      15.320      15.236      15.206      15.236    
  15.320      15.442      15.577      15.695      14.274      14.280      14.291      14.335      14.416      14.533    
  14.685      14.872      15.095      15.335      15.536      15.659      15.695      15.657      15.571      15.471    
  15.385      15.337      15.337      15.385      15.471      15.571      15.657      15.695      15.659      15.536    
  15.335      15.095      14.872      14.685      14.533      14.416      14.335      14.291      14.280      14.274    
  14.247      14.196      14.127      14.055      13.996      13.963      13.963      13.996      14.055      14.127    
  14.196      14.247      12.765      12.871      13.019      13.207      13.435      13.701      14.005      14.348    
  14.721      15.068      15.338      15.507      15.577      15.571      15.520      15.456      15.407      15.388    
  15.407      15.456      15.520      15.571      15.577      15.507      15.338      15.068      14.721      14.348    
  14.005      13.701      13.435      13.207      13.019      12.871      12.765      12.693      12.635      12.582    
  12.530      12.486      12.455      12.444      12.455      12.486      12.530      12.582      12.635      12.693    
  11.425      11.646      11.913      12.226      12.582      12.982      13.425      13.908      14.393      14.815    
  15.134      15.339      15.442      15.471      15.456      15.429      15.409      15.409      15.429      15.456    
  15.471      15.442      15.339      15.134      14.815      14.393      13.908      13.425      12.982      12.582    
  12.226      11.913      11.646      11.425      11.250      11.118      11.021      10.950      10.896      10.859    
  10.840      10.840      10.859      10.896      10.950      11.021      11.118      11.250      10.273      10.591    
  10.962      11.383      11.855      12.375      12.944      13.543      14.108      14.583      14.942      15.181    
  15.320      15.385      15.407      15.409      15.408      15.409      15.407      15.385      15.320      15.181    
  14.942      14.583      14.108      13.543      12.944      12.375      11.855      11.383      10.962      10.591    
  10.273      10.007      9.7909      9.6217      9.4930      9.3990      9.3347      9.2971      9.2847      9.2971    
  9.3347      9.3990      9.4930      9.6217      9.7909      10.007      9.2923      9.6958      10.158      10.677    
  11.252      11.882      12.560      13.244      13.869      14.388      14.784      15.060      15.236      15.337    
  15.388      15.409      15.409      15.388      15.337      15.236      15.060      14.784      14.388      13.869    
  13.244      12.560      11.882      11.252      10.677      10.158      9.6958      9.2923      8.9474      8.6598    
  8.4263      8.2418      8.1008      7.9986      7.9318      7.8987      7.8987      7.9318      7.9986      8.1008    
  8.2418      8.4263      8.6598      8.9474      8.4722      8.9517      9.4958      10.103      10.771      11.497    
  12.264      13.014      13.687      14.246      14.680      14.994      15.206      15.337      15.407      15.429    
  15.407      15.337      15.206      14.994      14.680      14.246      13.687      13.014      12.264      11.497    
  10.771      10.103      9.4958      8.9517      8.4722      8.0576      7.7068      7.4166      7.1823      6.9985    
  6.8599      6.7628      6.7052      6.6861      6.7052      6.7628      6.8599      6.9985      7.1823      7.4166    
  7.7068      8.0576      7.8033      8.3518      8.9705      9.6570      10.408      11.216      12.053      12.856    
  13.572      14.172      14.644      14.994      15.236      15.385      15.456      15.456      15.385      15.236    
  14.994      14.644      14.172      13.572      12.856      12.053      11.216      10.408      9.6570      8.9705    
  8.3518      7.8033      7.3255      6.9175      6.5763      6.2971      6.0739      5.9013      5.7748      5.6915    
  5.6501      5.6501      5.6915      5.7748      5.9013      6.0739      6.2971      6.5763      6.9175      7.3255    
  7.2764      7.8882      8.5745      9.3318      10.154      11.032      11.926      12.776      13.533      14.172    
  14.680      15.060      15.320      15.471      15.520      15.471      15.320      15.060      14.680      14.172    
  13.533      12.776      11.926      11.032      10.154      9.3318      8.5745      7.8882      7.2764      6.7405    
  6.2798      5.8914      5.5705      5.3109      5.1064      4.9517      4.8430      4.7784      4.7569      4.7784    
  4.8430      4.9517      5.1064      5.3109      5.5705      5.8914      6.2798      6.7405      6.8816      7.5517    
  8.2996      9.1201      10.005      10.941      11.884      12.776      13.572      14.246      14.784      15.181    
  15.442      15.571      15.571      15.442      15.181      14.784      14.246      13.572      12.776      11.884    
  10.941      10.005      9.1201      8.2996      7.5517      6.8816      6.2915      5.7815      5.3487      4.9885    
  4.6943      4.4595      4.2777      4.1445      4.0568      4.0133      4.0133      4.0568      4.1445      4.2777    
  4.4595      4.6943      4.9885      5.3487      5.7815      6.2915      6.6088      7.3335      8.1382      9.0159    
  9.9559      10.941      11.926      12.856      13.687      14.388      14.942      15.339      15.577      15.657    
  15.577      15.339      14.942      14.388      13.687      12.856      11.926      10.941      9.9559      9.0159    
  8.1382      7.3335      6.6088      5.9676      5.4104      4.9352      4.5370      4.2095      3.9452      3.7374    
  3.5804      3.4703      3.4050      3.3833      3.4050      3.4703      3.5804      3.7374      3.9452      4.2095    
  4.5370      4.9352      5.4104      5.9676      6.4491      7.2264      8.0850      9.0159      10.005      11.032    
  12.053      13.014      13.869      14.583      15.134      15.507      15.695      15.695      15.507      15.134    
  14.583      13.869      13.014      12.053      11.032      10.005      9.0159      8.0850      7.2264      6.4491    
  5.7582      5.1552      4.6382      4.2027      3.8421      3.5488      3.3152      3.1350      3.0033      2.9169    
  2.8740      2.8740      2.9169      3.0033      3.1350      3.3152      3.5488      3.8421      4.2027      4.6382    
  5.1552      5.7582      6.3966      7.2264      8.1382      9.1201      10.154      11.216      12.264      13.244    
  14.108      14.815      15.338      15.659      15.768      15.659      15.338      14.815      14.108      13.244    
  12.264      11.216      10.154      9.1201      8.1382      7.2264      6.3966      5.6557      5.0062      4.4469    
  3.9735      3.5793      3.2564      2.9969      2.7934      2.6403      2.5335      2.4703      2.4493      2.4703    
  2.5335      2.6403      2.7934      2.9969      3.2564      3.5793      3.9735      4.4469      5.0062      5.6557    
  6.4491      7.3335      8.2996      9.3318      10.408      11.497      12.560      13.543      14.393      15.068    
  15.536      15.775      15.775      15.536      15.068      14.393      13.543      12.560      11.497      10.408    
  9.3318      8.2996      7.3335      6.4491      5.6557      4.9572      4.3533      3.8399      3.4103      3.0564    
  2.7696      2.5421      2.3674      2.2404      2.1575      2.1165      2.1165      2.1575      2.2404      2.3674    
  2.5421      2.7696      3.0564      3.4103      3.8399      4.3533      4.9572      5.6557      6.6088      7.5517    
  8.5745      9.6570      10.771      11.882      12.944      13.908      14.721      15.335      15.717      15.847    
  15.717      15.335      14.721      13.908      12.944      11.882      10.771      9.6570      8.5745      7.5517    
  6.6088      5.7582      5.0062      4.3533      3.7961      3.3277      2.9399      2.6235      2.3703      2.1728    
  2.0251      1.9227      1.8624      1.8425      1.8624      1.9227      2.0251      2.1728      2.3703      2.6235    
  2.9399      3.3277      3.7961      4.3533      5.0062      5.7582      6.8816      7.8882      8.9705      10.103    
  11.252      12.375      13.425      14.348      15.095      15.620      15.891      15.891      15.620      15.095    
  14.348      13.425      12.375      11.252      10.103      8.9705      7.8882      6.8816      5.9676      5.1552    
  4.4469      3.8399      3.3277      2.9016      2.5522      2.2702      2.0478      1.8779      1.7553      1.6759    
  1.6368      1.6368      1.6759      1.7553      1.8779      2.0478      2.2702      2.5522      2.9016      3.3277    
  3.8399      4.4469      5.1552      5.9676      7.2764      8.3518      9.4958      10.677      11.855      12.982    
  14.005      14.872      15.532      15.946      16.087      15.946      15.532      14.872      14.005      12.982    
  11.855      10.677      9.4958      8.3518      7.2764      6.2915      5.4104      4.6382      3.9735      3.4103    
  2.9399      2.5522      2.2374      1.9866      1.7922      1.6478      1.5484      1.4903      1.4712      1.4903    
  1.5484      1.6478      1.7922      1.9866      2.2374      2.5522      2.9399      3.4103      3.9735      4.6382    
  5.4104      6.2915      7.8033      8.9517      10.158      11.383      12.582      13.701      14.685      15.479    
  16.038      16.327      16.327      16.038      15.479      14.685      13.701      12.582      11.383      10.158    
  8.9517      7.8033      6.7405      5.7815      4.9352      4.2027      3.5793      3.0564      2.6235      2.2702    
  1.9866      1.7640      1.5952      1.4741      1.3962      1.3581      1.3581      1.3962      1.4741      1.5952    
  1.7640      1.9866      2.2702      2.6235      3.0564      3.5793      4.2027      4.9352      5.7815      6.7405    
  8.4722      9.6958      10.962      12.226      13.435      14.533      15.462      16.170      16.613      16.764    
  16.613      16.170      15.462      14.533      13.435      12.226      10.962      9.6958      8.4722      7.3255    
  6.2798      5.3487      4.5370      3.8421      3.2564      2.7696      2.3703      2.0478      1.7922      1.5952    
  1.4498      1.3502      1.2923      1.2733      1.2923      1.3502      1.4498      1.5952      1.7922      2.0478    
  2.3703      2.7696      3.2564      3.8421      4.5370      5.3487      6.2798      7.3255      9.2923      10.591    
  11.913      13.207      14.416      15.479      16.339      16.943      17.255      17.255      16.943      16.339    
  15.479      14.416      13.207      11.913      10.591      9.2923      8.0576      6.9175      5.8914      4.9885    
  4.2095      3.5488      2.9969      2.5421      2.1728      1.8779      1.6478      1.4741      1.3502      1.2707    
  1.2319      1.2319      1.2707      1.3502      1.4741      1.6478      1.8779      2.1728      2.5421      2.9969    
  3.5488      4.2095      4.9885      5.8914      6.9175      8.0576      10.273      11.646      13.019      14.335    
  15.532      16.546      17.319      17.804      17.969      17.804      17.319      16.546      15.532      14.335    
  13.019      11.646      10.273      8.9474      7.7068      6.5763      5.5705      4.6943      3.9452      3.3152    
  2.7934      2.3674      2.0251      1.7553      1.5484      1.3962      1.2923      1.2319      1.2121      1.2319    
  1.2923      1.3962      1.5484      1.7553      2.0251      2.3674      2.7934      3.3152      3.9452      4.6943    
  5.5705      6.5763      7.7068      8.9474      11.425      12.871      14.291      15.620      16.786      17.723    
  18.377      18.713      18.713      18.377      17.723      16.786      15.620      14.291      12.871      11.425    
  10.007      8.6598      7.4166      6.2971      5.3109      4.4595      3.7374      3.1350      2.6403      2.2404    
  1.9227      1.6759      1.4903      1.3581      1.2733      1.2319      1.2319      1.2733      1.3581      1.4903    
  1.6759      1.9227      2.2404      2.6403      3.1350      3.7374      4.4595      5.3109      6.2971      7.4166    
  8.6598      10.007      12.765      14.280      15.717      16.999      18.061      18.852      19.339      19.503    
  19.339      18.852      18.061      16.999      15.717      14.280      12.765      11.250      9.7909      8.4263    
  7.1823      6.0739      5.1064      4.2777      3.5804      3.0033      2.5335      2.1575      1.8624      1.6368    
  1.4712      1.3581      1.2923      1.2707      1.2923      1.3581      1.4712      1.6368      1.8624      2.1575    
  2.5335      3.0033      3.5804      4.2777      5.1064      6.0739      7.1823      8.4263      9.7909      11.250    
  14.274      15.775      17.120      18.248      19.117      19.704      19.999      19.999      19.704      19.117    
  18.248      17.120      15.775      14.274      12.693      11.118      9.6217      8.2418      6.9985      5.9013    
  4.9517      4.1445      3.4703      2.9169      2.4703      2.1165      1.8425      1.6368      1.4903      1.3962    
  1.3502      1.3502      1.3962      1.4903      1.6368      1.8425      2.1165      2.4703      2.9169      3.4703    
  4.1445      4.9517      5.9013      6.9985      8.2418      9.6217      11.118      12.693      15.768      17.118    
  18.242      19.110      19.716      20.071      20.187      20.071      19.716      19.110      18.242      17.118    
  15.768      14.247      12.635      11.021      9.4930      8.1008      6.8599      5.7748      4.8430      4.0568    
  3.4050      2.8740      2.4493      2.1165      1.8624      1.6759      1.5484      1.4741      1.4498      1.4741    
  1.5484      1.6759      1.8624      2.1165      2.4493      2.8740      3.4050      4.0568      4.8430      5.7748    
  6.8599      8.1008      9.4930      11.021      12.635      14.247      16.996      18.045      18.822      19.347    
  19.658      19.800      19.800      19.658      19.347      18.822      18.045      16.996      15.695      14.196    
  12.582      10.950      9.3990      7.9986      6.7628      5.6915      4.7784      4.0133      3.3833      2.8740    
  2.4703      2.1575      1.9227      1.7553      1.6478      1.5952      1.5952      1.6478      1.7553      1.9227    
  2.1575      2.4703      2.8740      3.3833      4.0133      4.7784      5.6915      6.7628      7.9986      9.3990    
  10.950      12.582      14.196      15.695      17.699      18.303      18.638      18.781      18.820      18.825    
  18.820      18.781      18.638      18.303      17.699      16.788      15.577      14.127      12.530      10.896    
  9.3347      7.9318      6.7052      5.6501      4.7569      4.0133      3.4050      2.9169      2.5335      2.2404    
  2.0251      1.8779      1.7922      1.7640      1.7922      1.8779      2.0251      2.2404      2.5335      2.9169    
  3.4050      4.0133      4.7569      5.6501      6.7052      7.9318      9.3347      10.896      12.530      14.127    
  15.577      16.788      17.637      17.686      17.536      17.325      17.183      17.183      17.325      17.536    
  17.686      17.637      17.273      16.538      15.442      14.055      12.486      10.859      9.2971      7.8987    
  6.6861      5.6501      4.7784      4.0568      3.4703      3.0033      2.6403      2.3674      2.1728      2.0478    
  1.9866      1.9866      2.0478      2.1728      2.3674      2.6403      3.0033      3.4703      4.0568      4.7784    
  5.6501      6.6861      7.8987      9.2971      10.859      12.486      14.055      15.442      16.538      17.273    
  16.627      16.076      15.472      15.011      14.840      15.011      15.472      16.076      16.627      16.930    
  16.842      16.298      15.320      13.996      12.455      10.840      9.2847      7.8987      6.7052      5.6915    
  4.8430      4.1445      3.5804      3.1350      2.7934      2.5421      2.3703      2.2702      2.2374      2.2702    
  2.3703      2.5421      2.7934      3.1350      3.5804      4.1445      4.8430      5.6915      6.7052      7.8987    
  9.2847      10.840      12.455      13.996      15.320      16.298      16.842      16.930      14.589      13.476    
  12.536      12.000      12.000      12.536      13.476      14.589      15.607      16.289      16.476      16.111    
  15.236      13.963      12.444      10.840      9.2971      7.9318      6.7628      5.7748      4.9517      4.2777    
  3.7374      3.3152      2.9969      2.7696      2.6235      2.5522      2.5522      2.6235      2.7696      2.9969    
  3.3152      3.7374      4.2777      4.9517      5.7748      6.7628      7.9318      9.2971      10.840      12.444    
  13.963      15.236      16.111      16.476      16.289      15.607      11.582      10.042      8.9624      8.5748    
  8.9624      10.042      11.582      13.266      14.764      15.806      16.233      16.010      15.206      13.963    
  12.455      10.859      9.3347      7.9986      6.8599      5.9013      5.1064      4.4595      3.9452      3.5488    
  3.2564      3.0564      2.9399      2.9016      2.9399      3.0564      3.2564      3.5488      3.9452      4.4595    
  5.1064      5.9013      6.8599      7.9986      9.3347      10.859      12.455      13.963      15.206      16.010    
  16.233      15.806      14.764      13.266      7.8291      6.0809      5.1127      5.1127      6.0809      7.8291    
  10.027      12.278      14.210      15.547      16.148      16.010      15.236      13.996      12.486      10.896    
  9.3990      8.1008      6.9985      6.0739      5.3109      4.6943      4.2095      3.8421      3.5793      3.4103    
  3.3277      3.3277      3.4103      3.5793      3.8421      4.2095      4.6943      5.3109      6.0739      6.9985    
  8.1008      9.3990      10.896      12.486      13.996      15.236      16.010      16.148      15.547      14.210    
  12.278      10.027      3.7102      2.0301      1.4341      2.0301      3.7102      6.1760      9.0063      11.750    
  14.017      15.547      16.233      16.111      15.320      14.055      12.530      10.950      9.4930      8.2418    
  7.1823      6.2971      5.5705      4.9885      4.5370      4.2027      3.9735      3.8399      3.7961      3.8399    
  3.9735      4.2027      4.5370      4.9885      5.5705      6.2971      7.1823      8.2418      9.4930      10.950    
  12.530      14.055      15.320      16.111      16.233      15.547      14.017      11.750      9.0063      6.1760    
 -.28163     -1.6106     -1.6106     -.28163      2.1524      5.2928      8.6511      11.750      14.210      15.806    
  16.476      16.298      15.442      14.127      12.582      11.021      9.6217      8.4263      7.4166      6.5763    
  5.8914      5.3487      4.9352      4.6382      4.4469      4.3533      4.3533      4.4469      4.6382      4.9352    
  5.3487      5.8914      6.5763      7.4166      8.4263      9.6217      11.021      12.582      14.127      15.442    
  16.298      16.476      15.806      14.210      11.750      8.6511      5.2928      2.1524     -3.6198     -4.3593    
 -3.6197     -1.5198      1.6095      5.2928      9.0063      12.278      14.764      16.289      16.842      16.538    
  15.577      14.196      12.635      11.118      9.7909      8.6598      7.7068      6.9175      6.2798      5.7815    
  5.4104      5.1552      5.0062      4.9572      5.0062      5.1552      5.4104      5.7815      6.2798      6.9175    
  7.7068      8.6598      9.7909      11.118      12.635      14.196      15.577      16.538      16.842      16.289    
  14.764      12.278      9.0063      5.2928      1.6095     -1.5198     -5.8374     -5.8374     -4.3215     -1.5198    
  2.1524      6.1760      10.027      13.266      15.607      16.930      17.273      16.788      15.695      14.247    
  12.693      11.250      10.007      8.9474      8.0576      7.3255      6.7405      6.2915      5.9676      5.7582    
  5.6557      5.6557      5.7582      5.9676      6.2915      6.7405      7.3255      8.0576      8.9474      10.007    
  11.250      12.693      14.247      15.695      16.788      17.273      16.930      15.607      13.266      10.027    
  6.1760      2.1524     -1.5198     -4.3215     -5.8374     -4.3593     -1.6106      2.0301      6.0809      10.042    
  13.476      16.076      17.686      18.303      18.045      17.118      15.775      14.280      12.871      11.646    
  10.591      9.6958      8.9517      8.3518      7.8882      7.5517      7.3335      7.2264      7.2264      7.3335    
  7.5517      7.8882      8.3518      8.9517      9.6958      10.591      11.646      12.871      14.280      15.775    
  17.118      18.045      18.303      17.686      16.076      13.476      10.042      6.0809      2.0301     -1.6106    
 -4.3593     -5.8374     -4.3593     -2.2938     0.83833      4.6265      8.5970      12.292      15.338      17.496    
  18.671      18.907      18.357      17.250      15.847      14.412      13.128      12.013      11.053      10.242    
  9.5742      9.0439      8.6441      8.3665      8.2036      8.1499      8.2036      8.3665      8.6441      9.0439    
  9.5742      10.242      11.053      12.013      13.128      14.412      15.847      17.250      18.357      18.907    
  18.671      17.496      15.338      12.292      8.5970      4.6265     0.83834     -2.2938     -4.3593     -5.0804    
 -1.6106     0.83833      4.1093      7.7920      11.449      14.683      17.195      18.812      19.498      19.340    
  18.520      17.282      15.891      14.583      13.435      12.436      11.578      10.858      10.273      9.8181    
  9.4862      9.2703      9.1640      9.1640      9.2703      9.4862      9.8181      10.273      10.858      11.578    
  12.436      13.435      14.583      15.891      17.282      18.520      19.340      19.498      18.812      17.195    
  14.683      11.449      7.7920      4.1093     0.83834     -1.6106     -2.9210     -2.9210      2.0301      4.6265    