unknown system                          
   1.00000000000000     
     0.000000    2.984000    2.984000
     2.984000    0.000000    2.984000
     2.984000    2.984000    0.000000
   Eu   S 
     1     1
Direct
  0.000000  0.000000  0.000000
  0.500000  0.500000  0.500000
 
   36   36   36
  533.75      521.91      485.88      425.85      346.28      257.38      172.73      104.08      57.032      30.040    
  16.630      9.6201      5.8992      4.0460      3.1540      2.7286      2.5352      2.4619      2.4452      2.4619    
  2.5352      2.7286      3.1540      4.0460      5.8992      9.6201      16.630      30.040      57.032      104.08    
  172.73      257.38      346.28      425.85      485.88      521.91      521.91      497.95      449.71      379.46    
  294.77      207.94      131.96      75.486      40.203      21.633      12.370      7.3434      4.7642      3.5076    
  2.9081      2.6261      2.5050      2.4659      2.4674      2.5070      2.6254      2.9058      3.5074      4.7663    
  7.3445      12.369      21.632      40.205      75.488      131.96      207.94      294.77      379.46      449.70    
  497.94      521.91      485.88      449.71      390.85      314.75      231.65      154.09      92.303      50.673    
  27.118      15.337      9.0010      5.6362      3.9560      3.1482      2.7680      2.5975      2.5313      2.5153    
  2.5315      2.5977      2.7680      3.1482      3.9560      5.6364      9.0016      15.339      27.120      50.674    
  92.305      154.09      231.66      314.75      390.86      449.71      485.88      497.94      425.85      379.46    
  314.75      239.99      166.30      104.08      59.366      32.275      18.155      10.683      6.5783      4.4690    
  3.4363      2.9457      2.7228      2.6321      2.6026      2.6014      2.6306      2.7235      2.9477      3.4366    
  4.4675      6.5780      10.686      18.158      32.276      59.367      104.08      166.31      240.00      314.76    
  379.47      425.86      449.71      449.70      346.27      294.77      231.65      166.30      108.31      64.306    
  35.993      20.428      12.152      7.4694      4.9850      3.7418      3.1450      2.8702      2.7545      2.7144    
  2.7058      2.7143      2.7545      2.8703      3.1453      3.7422      4.9855      7.4701      12.153      20.430    
  35.996      64.309      108.32      166.31      231.66      294.78      346.29      379.47      390.86      379.46    
  257.38      207.94      154.09      104.08      64.306      37.351      21.714      13.157      8.1721      5.4345    
  4.0255      3.3388      3.0228      2.8899      2.8421      2.8295      2.8302      2.8431      2.8895      3.0217    
  3.3390      4.0271      5.4356      8.1720      13.158      21.718      37.357      64.311      104.09      154.09    
  207.95      257.39      294.78      314.76      314.75      294.77      172.73      131.96      92.303      59.366    
  35.993      21.714      13.514      8.5581      5.7419      4.2486      3.5042      3.1595      3.0190      2.9740    
  2.9648      2.9641      2.9648      2.9741      3.0192      3.1597      3.5044      4.2491      5.7429      8.5596    
  13.516      21.718      35.999      59.373      92.310      131.96      172.74      207.95      231.66      240.00    
  231.66      207.94      104.08      75.486      50.673      32.274      20.428      13.157      8.5581      5.8501    
  4.3705      3.6171      3.2653      3.1262      3.0910      3.0952      3.1038      3.1034      3.0948      3.0915    
  3.1270      3.2654      3.6168      4.3712      5.8521      8.5601      13.158      20.430      32.279      50.681    
  75.496      104.09      131.96      154.09      166.31      166.31      154.09      131.96      57.032      40.204    
  27.119      18.155      12.152      8.1720      5.7418      4.3704      3.6564      3.3228      3.1982      3.1794    
  3.2026      3.2291      3.2398      3.2292      3.2027      3.1796      3.1983      3.3230      3.6569      4.3714    
  5.7432      8.1736      12.153      18.157      27.123      40.210      57.041      75.495      92.310      104.09    
  108.32      104.08      92.305      75.488      30.039      21.633      15.337      10.683      7.4697      5.4347    
  4.2486      3.6169      3.3227      3.2232      3.2269      3.2735      3.3233      3.3534      3.3535      3.3235    
  3.2735      3.2269      3.2234      3.3230      3.6172      4.2494      5.4368      7.4730      10.686      15.339    
  21.634      30.042      40.210      50.681      59.373      64.311      64.309      59.367      50.674      40.205    
  16.630      12.370      9.0006      6.5782      4.9852      4.0257      3.5043      3.2652      3.1981      3.2269    
  3.2980      3.3737      3.4288      3.4487      3.4287      3.3737      3.2981      3.2272      3.1985      3.2656    
  3.5048      4.0271      4.9880      6.5819      9.0037      12.372      16.631      21.634      27.123      32.279    
  35.999      37.356      35.996      32.276      27.120      21.633      9.6206      7.3436      5.6360      4.4686    
  3.7416      3.3388      3.1596      3.1262      3.1794      3.2735      3.3737      3.4549      3.5001      3.5002    
  3.4550      3.3737      3.2735      3.1797      3.1269      3.1603      3.3393      3.7422      4.4704      5.6398    
  7.3484      9.6246      12.372      15.339      18.157      20.430      21.718      21.718      20.430      18.157    
  15.339      12.369      5.8994      4.7647      3.9563      3.4363      3.1448      3.0226      3.0189      3.0910    
  3.2026      3.3234      3.4288      3.5001      3.5253      3.5002      3.4289      3.3234      3.2024      3.0909    
  3.0194      3.0237      3.1458      3.4368      3.9573      4.7673      5.9036      7.3484      9.0037      10.686    
  12.153      13.158      13.516      13.158      12.153      10.685      9.0011      7.3443      4.0456      3.5076    
  3.1486      2.9462      2.8705      2.8897      2.9737      3.0950      3.2290      3.3534      3.4487      3.5002    
  3.5002      3.4488      3.3536      3.2288      3.0943      2.9737      2.8917      2.8739      2.9487      3.1483    
  3.5054      4.0444      4.7673      5.6397      6.5819      7.4730      8.1736      8.5600      8.5596      8.1721    
  7.4703      6.5782      5.6363      4.7658      3.1536      2.9076      2.7679      2.7231      2.7549      2.8421    
  2.9647      3.1036      3.2397      3.3535      3.4288      3.4550      3.4289      3.3536      3.2393      3.1031    
  2.9651      2.8448      2.7594      2.7272      2.7689      2.9050      3.1498      3.5054      3.9573      4.4705    
  4.9880      5.4369      5.7432      5.8520      5.7427      5.4354      4.9856      4.4680      3.9565      3.5075    
  2.7288      2.6260      2.5972      2.6319      2.7143      2.8295      2.9641      3.1034      3.2292      3.3236    
  3.3737      3.3737      3.3234      3.2287      3.1031      2.9649      2.8322      2.7184      2.6356      2.5988    
  2.6251      2.7269      2.9049      3.1483      3.4368      3.7422      4.0271      4.2494      4.3714      4.3712    
  4.2490      4.0269      3.7420      3.4366      3.1486      2.9063      2.5357      2.5055      2.5315      2.6024    
  2.7055      2.8300      2.9647      3.0948      3.2028      3.2736      3.2981      3.2735      3.2024      3.0943    
  2.9651      2.8321      2.7090      2.6053      2.5320      2.5038      2.5338      2.6251      2.7688      2.9487    
  3.1458      3.3393      3.5048      3.6172      3.6569      3.6169      3.5046      3.3390      3.1450      2.9473    
  2.7678      2.6256      2.4618      2.4663      2.5160      2.6019      2.7143      2.8427      2.9738      3.0914    
  3.1796      3.2270      3.2272      3.1797      3.0909      2.9738      2.8448      2.7184      2.6053      2.5154    
  2.4616      2.4561      2.5038      2.5988      2.7272      2.8739      3.0237      3.1603      3.2656      3.3230    
  3.3230      3.2654      3.1597      3.0219      2.8704      2.7234      2.5973      2.5066      2.4447      2.4672    
  2.5318      2.6311      2.7548      2.8894      3.0190      3.1268      3.1983      3.2234      3.1985      3.1269    
  3.0194      2.8917      2.7595      2.6356      2.5320      2.4616      2.4364      2.4616      2.5320      2.6356    
  2.7595      2.8917      3.0194      3.1269      3.1985      3.2234      3.1983      3.1268      3.0190      2.8894    
  2.7548      2.6311      2.5318      2.4672      2.4618      2.5066      2.5973      2.7234      2.8704      3.0219    
  3.1597      3.2654      3.3230      3.3230      3.2656      3.1603      3.0237      2.8739      2.7272      2.5988    
  2.5038      2.4561      2.4616      2.5154      2.6053      2.7184      2.8448      2.9738      3.0909      3.1797    
  3.2272      3.2270      3.1796      3.0914      2.9738      2.8427      2.7143      2.6019      2.5160      2.4663    
  2.5357      2.6256      2.7678      2.9473      3.1450      3.3390      3.5046      3.6169      3.6569      3.6172    
  3.5048      3.3393      3.1458      2.9487      2.7688      2.6251      2.5338      2.5038      2.5320      2.6053    
  2.7090      2.8321      2.9651      3.0943      3.2024      3.2735      3.2981      3.2736      3.2028      3.0948    
  2.9647      2.8300      2.7055      2.6024      2.5315      2.5055      2.7288      2.9063      3.1486      3.4366    
  3.7420      4.0269      4.2490      4.3712      4.3714      4.2494      4.0271      3.7422      3.4368      3.1483    
  2.9049      2.7269      2.6251      2.5988      2.6356      2.7184      2.8322      2.9649      3.1031      3.2287    
  3.3234      3.3737      3.3737      3.3236      3.2292      3.1034      2.9641      2.8295      2.7143      2.6319    
  2.5972      2.6260      3.1536      3.5075      3.9565      4.4680      4.9856      5.4354      5.7427      5.8520    
  5.7432      5.4369      4.9880      4.4705      3.9573      3.5054      3.1498      2.9050      2.7689      2.7272    
  2.7594      2.8448      2.9651      3.1031      3.2393      3.3536      3.4289      3.4550      3.4288      3.3535    
  3.2397      3.1036      2.9647      2.8421      2.7549      2.7231      2.7679      2.9076      4.0456      4.7658    
  5.6363      6.5782      7.4703      8.1721      8.5596      8.5600      8.1736      7.4730      6.5819      5.6397    
  4.7673      4.0444      3.5054      3.1483      2.9487      2.8739      2.8917      2.9737      3.0943      3.2288    
  3.3536      3.4488      3.5002      3.5002      3.4487      3.3534      3.2290      3.0950      2.9737      2.8897    
  2.8705      2.9462      3.1486      3.5076      5.8994      7.3443      9.0011      10.685      12.153      13.158    
  13.516      13.158      12.153      10.686      9.0037      7.3484      5.9036      4.7673      3.9573      3.4368    
  3.1458      3.0237      3.0194      3.0909      3.2024      3.3234      3.4289      3.5002      3.5253      3.5001    
  3.4288      3.3234      3.2026      3.0910      3.0189      3.0226      3.1448      3.4363      3.9563      4.7647    
  9.6206      12.369      15.339      18.157      20.430      21.718      21.718      20.430      18.157      15.339    
  12.372      9.6246      7.3484      5.6398      4.4704      3.7422      3.3393      3.1603      3.1269      3.1797    
  3.2735      3.3737      3.4550      3.5002      3.5001      3.4549      3.3737      3.2735      3.1794      3.1262    
  3.1596      3.3388      3.7416      4.4686      5.6360      7.3436      16.630      21.633      27.120      32.276    
  35.996      37.356      35.999      32.279      27.123      21.634      16.631      12.372      9.0037      6.5819    
  4.9880      4.0271      3.5048      3.2656      3.1985      3.2272      3.2981      3.3737      3.4287      3.4487    
  3.4288      3.3737      3.2980      3.2269      3.1981      3.2652      3.5043      4.0257      4.9852      6.5782    
  9.0006      12.370      30.039      40.205      50.674      59.367      64.309      64.311      59.373      50.681    
  40.210      30.042      21.634      15.339      10.686      7.4730      5.4368      4.2494      3.6172      3.3230    
  3.2234      3.2269      3.2735      3.3235      3.3535      3.3534      3.3233      3.2735      3.2269      3.2232    
  3.3227      3.6169      4.2486      5.4347      7.4697      10.683      15.337      21.633      57.032      75.488    
  92.305      104.08      108.32      104.09      92.310      75.495      57.041      40.210      27.123      18.157    
  12.153      8.1736      5.7432      4.3714      3.6569      3.3230      3.1983      3.1796      3.2027      3.2292    
  3.2398      3.2291      3.2026      3.1794      3.1982      3.3228      3.6564      4.3704      5.7418      8.1720    
  12.152      18.155      27.119      40.204      104.08      131.96      154.09      166.31      166.31      154.09    
  131.96      104.09      75.496      50.681      32.279      20.430      13.158      8.5601      5.8521      4.3712    
  3.6168      3.2654      3.1270      3.0915      3.0948      3.1034      3.1038      3.0952      3.0910      3.1262    
  3.2653      3.6171      4.3705      5.8501      8.5581      13.157      20.428      32.274      50.673      75.486    
  172.73      207.94      231.66      240.00      231.66      207.95      172.74      131.96      92.310      59.373    
  35.999      21.718      13.516      8.5596      5.7429      4.2491      3.5044      3.1597      3.0192      2.9741    
  2.9648      2.9641      2.9648      2.9740      3.0190      3.1595      3.5042      4.2486      5.7419      8.5581    
  13.514      21.714      35.993      59.366      92.303      131.96      257.38      294.77      314.75      314.76    
  294.78      257.39      207.95      154.09      104.09      64.311      37.357      21.718      13.158      8.1720    
  5.4356      4.0271      3.3390      3.0217      2.8895      2.8431      2.8302      2.8295      2.8421      2.8899    
  3.0228      3.3388      4.0255      5.4345      8.1721      13.157      21.714      37.351      64.306      104.08    
  154.09      207.94      346.27      379.46      390.86      379.47      346.29      294.78      231.66      166.31    
  108.32      64.309      35.996      20.430      12.153      7.4701      4.9855      3.7422      3.1453      2.8703    
  2.7545      2.7143      2.7058      2.7144      2.7545      2.8702      3.1450      3.7418      4.9850      7.4694    
  12.152      20.428      35.993      64.306      108.31      166.30      231.65      294.77      425.85      449.70    
  449.71      425.86      379.47      314.76      240.00      166.31      104.08      59.367      32.276      18.158    
  10.686      6.5780      4.4675      3.4366      2.9477      2.7235      2.6306      2.6014      2.6026      2.6321    
  2.7228      2.9457      3.4363      4.4690      6.5783      10.683      18.155      32.275      59.366      104.08    
  166.30      239.99      314.75      379.46      485.88      497.94      485.88      449.71      390.86      314.75    
  231.66      154.09      92.305      50.674      27.120      15.339      9.0016      5.6364      3.9560      3.1482    
  2.7680      2.5977      2.5315      2.5153      2.5313      2.5975      2.7680      3.1482      3.9560      5.6362    
  9.0010      15.337      27.118      50.673      92.303      154.09      231.65      314.75      390.85      449.71    
  521.91      521.91      497.94      449.70      379.46      294.77      207.94      131.96      75.488      40.205    
  21.632      12.369      7.3445      4.7663      3.5074      2.9058      2.6254      2.5070      2.4674      2.4659    
  2.5050      2.6261      2.9081      3.5076      4.7642      7.3434      12.370      21.633      40.203      75.486    
  131.96      207.94      294.77      379.46      449.71      497.95      521.91      497.95      449.71      379.46    
  294.77      207.94      131.96      75.487      40.204      21.634      12.371      7.3436      4.7643      3.5077    
  2.9081      2.6262      2.5051      2.4660      2.4675      2.5070      2.6254      2.9058      3.5074      4.7662    
  7.3443      12.369      21.632      40.204      75.487      131.96      207.94      294.77      379.46      449.70    
  497.94      521.91      497.95      461.72      402.35      325.00      239.93      160.03      96.013      52.635    
  27.980      15.686      9.1296      5.6456      3.9041      3.0645      2.6663      2.4854      2.4137      2.3960    
  2.4135      2.4851      2.6662      3.0644      3.9039      5.6454      9.1297      15.686      27.980      52.634    
  96.013      160.04      239.94      325.00      402.34      461.71      497.94      509.97      449.71      402.35    
  335.48      257.25      179.22      112.58      64.173      34.553      19.091      11.073      6.6738      4.4094    
  3.2966      2.7623      2.5137      2.4087      2.3730      2.3716      2.4068      2.5142      2.7642      3.2968    
  4.4075      6.6731      11.075      19.093      34.553      64.172      112.58      179.22      257.26      335.48    
  402.35      449.71      473.83      473.83      379.46      325.00      257.25      186.02      121.83      72.363    
  40.070      22.191      12.924      7.7306      4.9673      3.5782      2.9030      2.5826      2.4399      2.3860    
  2.3734      2.3861      2.4399      2.5826      2.9031      3.5784      4.9675      7.7310      12.925      22.193    
  40.071      72.364      121.83      186.03      257.26      325.00      379.47      414.13      425.93      414.12    
  294.77      239.93      179.22      121.83      75.328      43.232      24.408      14.384      8.6607      5.5052    
  3.8709      3.0624      2.6762      2.5003      2.4276      2.4041      2.4050      2.4288      2.4998      2.6749    
  3.0625      3.8725      5.5061      8.6603      14.385      24.411      43.236      75.330      121.83      179.22    
  239.94      294.78      335.65      357.28      357.27      335.64      207.94      160.03      112.58      72.364    
  43.233      25.217      15.190      9.2985      5.9326      4.1325      3.2180      2.7742      2.5719      2.4883    
  2.4580      2.4506      2.4580      2.4883      2.5720      2.7743      3.2182      4.1329      5.9332      9.2994    
  15.191      25.221      43.237      72.369      112.59      160.04      207.95      248.67      275.77      285.24    
  275.76      248.66      131.96      96.013      64.173      40.070      24.408      15.190      9.5256      6.1681    
  4.3127      3.3440      2.8634      2.6417      2.5521      2.5225      2.5148      2.5144      2.5220      2.5524    
  2.6425      2.8634      3.3435      4.3131      6.1697      9.5275      15.192      24.411      40.075      64.180    
  96.019      131.96      166.40      193.36      208.11      208.11      193.35      166.39      75.487      52.635    
  34.553      22.191      14.384      9.2987      6.1683      4.3766      3.4134      2.9257      2.6988      2.6092    
  2.5845      2.5829      2.5842      2.5829      2.5847      2.6095      2.6989      2.9257      3.4137      4.3777    
  6.1699      9.3001      14.385      22.193      34.558      52.642      75.496      100.08      122.13      137.40    
  142.85      137.39      122.13      100.08      40.204      27.981      19.091      12.924      8.6605      5.9325    
  4.3127      3.4134      2.9476      2.7303      2.6489      2.6340      2.6430      2.6524      2.6525      2.6433    
  2.6341      2.6489      2.7306      2.9482      3.4140      4.3136      5.9339      8.6621      12.926      19.092    
  27.984      40.210      54.897      69.802      82.016      88.899      88.898      82.013      69.796      54.889    
  21.633      15.686      11.074      7.7310      5.5053      4.1324      3.3438      2.9256      2.7303      2.6628    
  2.6610      2.6840      2.7064      2.7152      2.7065      2.6840      2.6611      2.6631      2.7307      2.9258    
  3.3441      4.1336      5.5079      7.7342      11.076      15.687      21.634      29.092      37.454      45.302    
  50.929      52.975      50.925      45.296      37.450      29.090      12.370      9.1291      6.6737      4.9674    
  3.8712      3.2182      2.8633      2.6987      2.6488      2.6610      2.6983      2.7359      2.7584      2.7585    
  2.7360      2.6984      2.6612      2.6493      2.6992      2.8637      3.2187      3.8727      4.9704      6.6774    
  9.1321      12.372      16.256      20.513      24.778      28.333      30.372      30.371      28.331      24.776    
  20.512      16.256      7.3439      5.6454      4.4089      3.5779      3.0624      2.7744      2.6418      2.6092    
  2.6340      2.6840      2.7359      2.7737      2.7875      2.7738      2.7360      2.6840      2.6343      2.6100    
  2.6428      2.7750      3.0624      3.5779      4.4105      5.6490      7.3486      9.4844      11.914      14.374    
  16.512      17.980      18.507      17.980      16.512      14.373      11.913      9.4805      4.7648      3.9045    
  3.2967      2.9028      2.6760      2.5719      2.5521      2.5846      2.6430      2.7064      2.7584      2.7876    
  2.7876      2.7585      2.7066      2.6433      2.5850      2.5528      2.5726      2.6762      2.9022      3.2960    
  3.9052      4.7677      5.8907      7.2264      8.6579      10.006      11.063      11.645      11.645      11.063    
  10.005      8.6558      7.2227      5.8864      3.5076      3.0648      2.7628      2.5830      2.5003      2.4881    
  2.5223      2.5828      2.6523      2.7152      2.7585      2.7738      2.7585      2.7155      2.6528      2.5833    
  2.5226      2.4886      2.5012      2.5841      2.7632      3.0640      3.5063      4.0973      4.8218      5.6312    
  6.4405      7.1385      7.6132      7.7813      7.6122      7.1365      6.4376      5.6284      4.8203      4.0976    
  2.9076      2.6661      2.5139      2.4404      2.4280      2.4580      2.5146      2.5840      2.6525      2.7065    
  2.7360      2.7359      2.7066      2.6528      2.5847      2.5153      2.4588      2.4291      2.4419      2.5152    
  2.6663      2.9064      3.2375      3.6509      4.1240      4.6165      5.0707      5.4217      5.6134      5.6133    
  5.4210      5.0691      4.6147      4.1233      3.6517      3.2392      2.6260      2.4849      2.4083      2.3861    
  2.4044      2.4509      2.5144      2.5828      2.6432      2.6841      2.6984      2.6840      2.6433      2.5833    
  2.5153      2.4519      2.4050      2.3859      2.4080      2.4852      2.6272      2.8347      3.1000      3.4076    
  3.7349      4.0503      4.3156      4.4931      4.5557      4.4932      4.3156      4.0503      3.7349      3.4073    
  3.0991      2.8334      2.5054      2.4138      2.3728      2.3733      2.4050      2.4581      2.5220      2.5847    
  2.6341      2.6611      2.6612      2.6343      2.5850      2.5226      2.4587      2.4050      2.3720      2.3707    
  2.4125      2.5063      2.6540      2.8496      3.0809      3.3314      3.5801      3.8016      3.9689      4.0591    
  4.0591      3.9688      3.8014      3.5797      3.3305      3.0791      2.8469      2.6515      2.4663      2.3965    
  2.3721      2.3863      2.4287      2.4881      2.5523      2.6094      2.6489      2.6631      2.6493      2.6100    
  2.5528      2.4886      2.4290      2.3859      2.3707      2.3943      2.4644      2.5830      2.7454      2.9420    
  3.1602      3.3838      3.5925      3.7635      3.8757      3.9148      3.8756      3.7630      3.5914      3.3819    
  3.1575      2.9394      2.7439      2.5833      2.4671      2.4137      2.4074      2.4405      2.5000      2.5718    
  2.6423      2.6988      2.7306      2.7307      2.6992      2.6428      2.5726      2.5012      2.4419      2.4080    
  2.4125      2.4644      2.5655      2.7109      2.8915      3.0973      3.3155      3.5288      3.7157      3.8544    
  3.9279      3.9278      3.8542      3.7157      3.5281      3.3132      3.0939      2.8891      2.7111      2.5680    
  2.5066      2.4847      2.5141      2.5829      2.6752      2.7744      2.8634      2.9257      2.9481      2.9258    
  2.8637      2.7749      2.6761      2.5841      2.5152      2.4852      2.5063      2.5830      2.7109      2.8800    
  3.0797      3.2991      3.5234      3.7320      3.9015      4.0116      4.0496      4.0117      3.9020      3.7326    
  3.5232      3.2974      3.0771      2.8778      2.7102      2.5833      2.6255      2.6660      2.7639      2.9029    
  3.0626      3.2184      3.3436      3.4138      3.4140      3.3441      3.2187      3.0623      2.9022      2.7632    
  2.6663      2.6272      2.6540      2.7454      2.8915      3.0797      3.2974      3.5304      3.7592      3.9596    
  4.1077      4.1860      4.1861      4.1081      3.9602      3.7596      3.5299      3.2960      3.0777      2.8890    
  2.7426      2.6515      2.9062      3.0648      3.2968      3.5782      3.8722      4.1328      4.3131      4.3778    
  4.3136      4.1336      3.8727      3.5780      3.2960      3.0640      2.9064      2.8348      2.8496      2.9420    
  3.0973      3.2991      3.5304      3.7708      3.9958      4.1789      4.2981      4.3393      4.2982      4.1792    
  3.9961      3.7708      3.5296      3.2973      3.0947      2.9392      2.8472      2.8334      3.5074      3.9043    
  4.4080      4.9677      5.5060      5.9329      6.1696      6.1699      5.9339      5.5079      4.9704      4.4105    
  3.9052      3.5063      3.2375      3.1000      3.0809      3.1602      3.3155      3.5234      3.7592      3.9958    
  4.2048      4.3604      4.4433      4.4433      4.3604      4.2049      3.9962      3.7595      3.5227      3.3132    
  3.1572      3.0790      3.1003      3.2392      4.7658      5.6452      6.6733      7.7313      8.6605      9.2994    
  9.5274      9.3000      8.6621      7.7343      6.6774      5.6490      4.7678      4.0974      3.6509      3.4076    
  3.3314      3.3838      3.5288      3.7320      3.9596      4.1790      4.3604      4.4801      4.5218      4.4800    
  4.3604      4.1792      3.9602      3.7325      3.5282      3.3820      3.3295      3.4071      3.6517      4.0975    
  7.3441      9.1292      11.075      12.925      14.385      15.192      15.192      14.385      12.926      11.076    
  9.1321      7.3486      5.8907      4.8218      4.1241      3.7348      3.5801      3.5925      3.7157      3.9015    
  4.1077      4.2981      4.4434      4.5219      4.5218      4.4432      4.2982      4.1080      3.9017      3.7154    
  3.5918      3.5796      3.7346      4.1230      4.8189      5.8862      12.369      15.686      19.092      22.192    
  24.411      25.221      24.411      22.193      19.092      15.687      12.372      9.4845      7.2265      5.6312    
  4.6165      4.0503      3.8016      3.7635      3.8544      4.0116      4.1860      4.3393      4.4433      4.4800    
  4.4433      4.3393      4.1861      4.0115      3.8539      3.7627      3.8011      4.0499      4.6153      5.6280    
  7.2217      9.4799      21.632      27.981      34.553      40.071      43.235      43.237      40.075      34.558    
  27.984      21.634      16.256      11.915      8.6580      6.4405      5.0706      4.3155      3.9689      3.8757    
  3.9279      4.0496      4.1861      4.2981      4.3603      4.3603      4.2981      4.1861      4.0495      3.9276    
  3.8754      3.9684      4.3145      5.0685      6.4373      8.6549      11.913      16.255      40.204      52.634    
  64.172      72.365      75.330      72.369      64.179      52.642      40.210      29.092      20.513      14.373    
  10.006      7.1385      5.4217      4.4931      4.0591      3.9148      3.9278      4.0116      4.1080      4.1792    
  4.2049      4.1791      4.1079      4.0115      3.9276      3.9147      4.0590      4.4925      5.4199      7.1357    
  10.003      14.372      20.511      29.089      75.487      96.013      112.58      121.83      121.83      112.59    
  96.019      75.495      54.897      37.454      24.778      16.512      11.063      7.6132      5.6135      4.5556    
  4.0590      3.8755      3.8543      3.9019      3.9600      3.9960      3.9962      3.9602      3.9017      3.8538    
  3.8754      4.0591      4.5551      5.6120      7.6113      11.061      16.509      24.774      37.447      54.888    
  131.96      160.04      179.22      186.03      179.22      160.04      131.96      100.08      69.802      45.302    
  28.334      17.980      11.645      7.7813      5.6134      4.4932      3.9687      3.7629      3.7157      3.7327    
  3.7595      3.7707      3.7596      3.7327      3.7156      3.7627      3.9684      4.4926      5.6122      7.7797    
  11.643      17.977      28.329      45.294      69.792      100.07      207.94      239.94      257.26      257.26    
  239.94      207.95      166.40      122.13      82.016      50.929      30.372      18.507      11.645      7.6121    
  5.4211      4.3158      3.8013      3.5913      3.5281      3.5235      3.5302      3.5296      3.5227      3.5284    
  3.5921      3.8012      4.3144      5.4199      7.6115      11.643      18.503      30.366      50.922      82.010    
  122.12      166.39      294.77      325.00      335.48      325.01      294.78      248.67      193.36      137.40    
  88.899      52.975      30.371      17.980      11.063      7.1363      5.0691      4.0505      3.5799      3.3819    
  3.3131      3.2976      3.2965      3.2976      3.3131      3.3819      3.5798      4.0502      5.0684      7.1354    
  11.061      17.977      30.366      52.969      88.893      137.39      193.35      248.65      379.46      402.34    