   2   2   1   0
  0.2657030E+02  0.4220013E-09  0.4220013E-09  0.4220013E-09  0.5000000E-15
  1.000000000000000E-004
  CAR 
 unknown system                          
     48.16187029    -40.38859043  301      3.04862454      1.00000000
    -40.389  0.0000E+00  0.0000E+00
    -40.093  0.0000E+00  0.0000E+00
    -39.798  0.0000E+00  0.0000E+00
    -39.503  0.0000E+00  0.0000E+00
    -39.208  0.0000E+00  0.0000E+00
    -38.913  0.0000E+00  0.0000E+00
    -38.618  0.0000E+00  0.0000E+00
    -38.322  0.0000E+00  0.0000E+00
    -38.027  0.0000E+00  0.0000E+00
    -37.732  0.0000E+00  0.0000E+00
    -37.437  0.2647E-13  0.7812E-14
    -37.142  0.3716E-07  0.1097E-07
    -36.847  0.7599E-03  0.2243E-03
    -36.551  0.2612E+00  0.7731E-01
    -36.256  0.2267E+01  0.7463E+00
    -35.961  0.8493E+00  0.9970E+00
    -35.666  0.1011E-01  0.1000E+01
    -35.371  0.2246E-05  0.1000E+01
    -35.076  0.7529E-11  0.1000E+01
    -34.780  0.0000E+00  0.1000E+01
    -34.485  0.0000E+00  0.1000E+01
    -34.190  0.1558E-11  0.1000E+01
    -33.895  0.7220E-06  0.1000E+01
    -33.600  0.5018E-02  0.1001E+01
    -33.305  0.6311E+00  0.1188E+01
    -33.009  0.2361E+01  0.1885E+01
    -32.714  0.3885E+00  0.1999E+01
    -32.419  0.1727E-02  0.2000E+01
    -32.124  0.1328E-06  0.2000E+01
    -31.829  0.1505E-12  0.2000E+01
    -31.534  0.0000E+00  0.2000E+01
    -31.238  0.0000E+00  0.2000E+01
    -30.943  0.0000E+00  0.2000E+01
    -30.648  0.0000E+00  0.2000E+01
    -30.353  0.0000E+00  0.2000E+01
    -30.058  0.0000E+00  0.2000E+01
    -29.763  0.0000E+00  0.2000E+01
    -29.467  0.0000E+00  0.2000E+01
    -29.172  0.0000E+00  0.2000E+01
    -28.877  0.0000E+00  0.2000E+01
    -28.582  0.0000E+00  0.2000E+01
    -28.287  0.0000E+00  0.2000E+01
    -27.992  0.0000E+00  0.2000E+01
    -27.696  0.0000E+00  0.2000E+01
    -27.401  0.0000E+00  0.2000E+01
    -27.106  0.0000E+00  0.2000E+01
    -26.811  0.0000E+00  0.2000E+01
    -26.516  0.0000E+00  0.2000E+01
    -26.221  0.0000E+00  0.2000E+01
    -25.925  0.0000E+00  0.2000E+01
    -25.630  0.0000E+00  0.2000E+01
    -25.335  0.0000E+00  0.2000E+01
    -25.040  0.0000E+00  0.2000E+01
    -24.745  0.0000E+00  0.2000E+01
    -24.450  0.0000E+00  0.2000E+01
    -24.154  0.0000E+00  0.2000E+01
    -23.859  0.0000E+00  0.2000E+01
    -23.564  0.0000E+00  0.2000E+01
    -23.269  0.0000E+00  0.2000E+01
    -22.974  0.0000E+00  0.2000E+01
    -22.678  0.0000E+00  0.2000E+01
    -22.383  0.0000E+00  0.2000E+01
    -22.088  0.0000E+00  0.2000E+01
    -21.793  0.0000E+00  0.2000E+01
    -21.498  0.0000E+00  0.2000E+01
    -21.203  0.0000E+00  0.2000E+01
    -20.907  0.0000E+00  0.2000E+01
    -20.612  0.0000E+00  0.2000E+01
    -20.317  0.0000E+00  0.2000E+01
    -20.022  0.0000E+00  0.2000E+01
    -19.727  0.0000E+00  0.2000E+01
    -19.432  0.0000E+00  0.2000E+01
    -19.136  0.0000E+00  0.2000E+01
    -18.841  0.0000E+00  0.2000E+01
    -18.546  0.0000E+00  0.2000E+01
    -18.251  0.6150E-11  0.2000E+01
    -17.956  0.1823E-05  0.2000E+01
    -17.661  0.8463E-02  0.2002E+01
    -17.365  0.7664E+00  0.2229E+01
    -17.070  0.2293E+01  0.2906E+01
    -16.775  0.5519E+00  0.3069E+01
    -16.480  0.2185E+01  0.3713E+01
    -16.185  0.9552E+00  0.3995E+01
    -15.890  0.1574E-01  0.4000E+01
    -15.594  0.6207E-05  0.4000E+01
    -15.299  0.5058E-10  0.4000E+01
    -15.004  0.8994E-06  0.4000E+01
    -14.709  0.5115E-02  0.4002E+01
    -14.414  0.5855E+00  0.4174E+01
    -14.119  0.2303E+01  0.4854E+01
    -13.823  0.4893E+00  0.4999E+01
    -13.528  0.2332E-01  0.5006E+01
    -13.233  0.1003E+01  0.5302E+01
    -12.938  0.2137E+01  0.5932E+01
    -12.643  0.1308E+01  0.6318E+01
    -12.348  0.2125E+01  0.6946E+01
    -12.052  0.1997E+01  0.7535E+01
    -11.757  0.1491E+01  0.7975E+01
    -11.462  0.8305E-01  0.8000E+01
    -11.167  0.2361E-03  0.8000E+01
    -10.872  0.2175E-07  0.8000E+01
    -10.577  0.4261E-13  0.8000E+01
    -10.281  0.1102E-17  0.8000E+01
     -9.986  0.4231E-11  0.8000E+01
     -9.691  0.2964E-06  0.8000E+01
     -9.396  0.4635E-03  0.8000E+01
     -9.101  0.3806E-01  0.8011E+01
     -8.806  0.4821E+00  0.8154E+01
     -8.510  0.2553E+01  0.8907E+01
     -8.215  0.3016E+01  0.9797E+01
     -7.920  0.6626E+00  0.9993E+01
     -7.625  0.2389E-01  0.1000E+02
     -7.330  0.6571E-04  0.1000E+02
     -7.035  0.6387E-08  0.1000E+02
     -6.739  0.1239E-13  0.1000E+02
     -6.444  0.0000E+00  0.1000E+02
     -6.149  0.0000E+00  0.1000E+02
     -5.854  0.0000E+00  0.1000E+02
     -5.559  0.0000E+00  0.1000E+02
     -5.264  0.0000E+00  0.1000E+02
     -4.968  0.0000E+00  0.1000E+02
     -4.673  0.0000E+00  0.1000E+02
     -4.378  0.0000E+00  0.1000E+02
     -4.083  0.0000E+00  0.1000E+02
     -3.788  0.0000E+00  0.1000E+02
     -3.493  0.0000E+00  0.1000E+02
     -3.197  0.0000E+00  0.1000E+02
     -2.902  0.0000E+00  0.1000E+02
     -2.607  0.0000E+00  0.1000E+02
     -2.312  0.0000E+00  0.1000E+02
     -2.017  0.4378E-15  0.1000E+02
     -1.722  0.5084E-09  0.1000E+02
     -1.426  0.8765E-05  0.1000E+02
     -1.131  0.3341E-02  0.1000E+02
     -0.836  0.1113E+00  0.1003E+02
     -0.541  0.6775E+00  0.1023E+02
     -0.246  0.1643E+01  0.1072E+02
      0.049  0.2091E+01  0.1134E+02
      0.345  0.2929E+01  0.1220E+02
      0.640  0.6895E+01  0.1424E+02
      0.935  0.1035E+02  0.1729E+02
      1.230  0.1082E+02  0.2048E+02
      1.525  0.5716E+01  0.2217E+02
      1.820  0.1972E+01  0.2275E+02
      2.116  0.6806E+00  0.2295E+02
      2.411  0.1456E+00  0.2300E+02
      2.706  0.1169E-01  0.2300E+02
      3.001  0.1277E-03  0.2300E+02
      3.296  0.1538E-04  0.2300E+02
      3.591  0.2980E-02  0.2300E+02
      3.887  0.2794E-01  0.2301E+02
      4.182  0.9483E-01  0.2304E+02
      4.477  0.2113E+00  0.2310E+02
      4.772  0.4055E+00  0.2322E+02
      5.067  0.3834E+00  0.2333E+02
      5.362  0.6923E+00  0.2354E+02
      5.658  0.7335E+00  0.2375E+02
      5.953  0.1147E+01  0.2409E+02
      6.248  0.9911E+00  0.2438E+02
      6.543  0.1343E+01  0.2478E+02
      6.838  0.1504E+01  0.2522E+02
      7.133  0.1633E+01  0.2571E+02
      7.429  0.1814E+01  0.2624E+02
      7.724  0.2223E+01  0.2690E+02
      8.019  0.2571E+01  0.2766E+02
      8.314  0.2922E+01  0.2852E+02
      8.609  0.2937E+01  0.2939E+02
      8.904  0.3083E+01  0.3030E+02
      9.200  0.2943E+01  0.3116E+02
      9.495  0.2380E+01  0.3187E+02
      9.790  0.1970E+01  0.3245E+02
     10.085  0.2002E+01  0.3304E+02
     10.380  0.1762E+01  0.3356E+02
     10.676  0.1314E+01  0.3395E+02
     10.971  0.1402E+01  0.3436E+02
     11.266  0.1630E+01  0.3484E+02
     11.561  0.1423E+01  0.3526E+02
     11.856  0.1603E+01  0.3574E+02
     12.151  0.2037E+01  0.3634E+02
     12.447  0.2294E+01  0.3701E+02
     12.742  0.2475E+01  0.3774E+02
     13.037  0.2228E+01  0.3840E+02
     13.332  0.2498E+01  0.3914E+02
     13.627  0.3365E+01  0.4013E+02
     13.922  0.5833E+01  0.4185E+02
     14.218  0.7767E+01  0.4415E+02
     14.513  0.4889E+01  0.4559E+02
     14.808  0.3153E+01  0.4652E+02
     15.103  0.3318E+01  0.4750E+02
     15.398  0.2884E+01  0.4835E+02
     15.693  0.2192E+01  0.4900E+02
     15.989  0.1476E+01  0.4943E+02
     16.284  0.1524E+01  0.4988E+02
     16.579  0.1754E+01  0.5040E+02
     16.874  0.2505E+01  0.5114E+02
     17.169  0.1995E+01  0.5173E+02
     17.464  0.1344E+01  0.5213E+02
     17.760  0.1515E+01  0.5257E+02
     18.055  0.1894E+01  0.5313E+02
     18.350  0.1695E+01  0.5363E+02
     18.645  0.1523E+01  0.5408E+02
     18.940  0.1791E+01  0.5461E+02
     19.235  0.1543E+01  0.5507E+02
     19.531  0.1277E+01  0.5544E+02
     19.826  0.1639E+01  0.5593E+02
     20.121  0.1933E+01  0.5650E+02
     20.416  0.1474E+01  0.5693E+02
     20.711  0.1926E+01  0.5750E+02
     21.006  0.2405E+01  0.5821E+02
     21.302  0.2248E+01  0.5888E+02
     21.597  0.2292E+01  0.5955E+02
     21.892  0.2353E+01  0.6025E+02
     22.187  0.2462E+01  0.6097E+02
     22.482  0.1968E+01  0.6155E+02
     22.777  0.1953E+01  0.6213E+02
     23.073  0.1937E+01  0.6270E+02
     23.368  0.1992E+01  0.6329E+02
     23.663  0.2065E+01  0.6390E+02
     23.958  0.2179E+01  0.6454E+02
     24.253  0.2122E+01  0.6517E+02
     24.548  0.2225E+01  0.6583E+02
     24.844  0.1794E+01  0.6636E+02
     25.139  0.1842E+01  0.6690E+02
     25.434  0.2411E+01  0.6761E+02
     25.729  0.2639E+01  0.6839E+02
     26.024  0.2057E+01  0.6900E+02
     26.319  0.1786E+01  0.6952E+02
     26.615  0.1623E+01  0.7000E+02
     26.910  0.2094E+01  0.7062E+02
     27.205  0.2534E+01  0.7137E+02
     27.500  0.1885E+01  0.7193E+02
     27.795  0.1803E+01  0.7246E+02
     28.090  0.2224E+01  0.7312E+02
     28.386  0.2180E+01  0.7376E+02
     28.681  0.2093E+01  0.7438E+02
     28.976  0.2120E+01  0.7500E+02
     29.271  0.2221E+01  0.7566E+02
     29.566  0.2134E+01  0.7629E+02
     29.861  0.2357E+01  0.7698E+02
     30.157  0.2276E+01  0.7766E+02
     30.452  0.2258E+01  0.7832E+02
     30.747  0.2203E+01  0.7897E+02
     31.042  0.2065E+01  0.7958E+02
     31.337  0.2155E+01  0.8022E+02
     31.632  0.2256E+01  0.8088E+02
     31.928  0.1566E+01  0.8135E+02
     32.223  0.1914E+01  0.8191E+02
     32.518  0.2495E+01  0.8265E+02
     32.813  0.2256E+01  0.8331E+02
     33.108  0.2272E+01  0.8398E+02
     33.403  0.2179E+01  0.8463E+02
     33.699  0.2376E+01  0.8533E+02
     33.994  0.2077E+01  0.8594E+02
     34.289  0.1802E+01  0.8647E+02
     34.584  0.2024E+01  0.8707E+02
     34.879  0.2305E+01  0.8775E+02
     35.174  0.2226E+01  0.8841E+02
     35.470  0.2088E+01  0.8902E+02
     35.765  0.2426E+01  0.8974E+02
     36.060  0.2528E+01  0.9049E+02
     36.355  0.3295E+01  0.9146E+02
     36.650  0.2687E+01  0.9225E+02
     36.945  0.2672E+01  0.9304E+02
     37.241  0.2527E+01  0.9379E+02
     37.536  0.2175E+01  0.9443E+02
     37.831  0.2227E+01  0.9509E+02
     38.126  0.1839E+01  0.9563E+02
     38.421  0.2139E+01  0.9626E+02
     38.716  0.2640E+01  0.9704E+02
     39.012  0.2446E+01  0.9776E+02
     39.307  0.2103E+01  0.9838E+02
     39.602  0.1948E+01  0.9896E+02
     39.897  0.1717E+01  0.9946E+02
     40.192  0.1690E+01  0.9996E+02
     40.487  0.2087E+01  0.1006E+03
     40.783  0.2046E+01  0.1012E+03
     41.078  0.2042E+01  0.1018E+03
     41.373  0.1607E+01  0.1023E+03
     41.668  0.1795E+01  0.1028E+03
     41.963  0.1650E+01  0.1033E+03
     42.259  0.1571E+01  0.1037E+03
     42.554  0.1047E+01  0.1040E+03
     42.849  0.9998E+00  0.1043E+03
     43.144  0.8293E+00  0.1046E+03
     43.439  0.6077E+00  0.1048E+03
     43.734  0.4458E+00  0.1049E+03
     44.030  0.2282E+00  0.1050E+03
     44.325  0.1057E+00  0.1050E+03
     44.620  0.6601E-02  0.1050E+03
     44.915  0.1802E-04  0.1050E+03
     45.210  0.1004E-08  0.1050E+03
     45.505  0.8463E-15  0.1050E+03
     45.801  0.0000E+00  0.1050E+03
     46.096  0.0000E+00  0.1050E+03
     46.391  0.0000E+00  0.1050E+03
     46.686  0.0000E+00  0.1050E+03
     46.981  0.0000E+00  0.1050E+03
     47.276  0.0000E+00  0.1050E+03
     47.572  0.0000E+00  0.1050E+03
     47.867  0.0000E+00  0.1050E+03
     48.162  0.0000E+00  0.1050E+03
     48.16187029    -40.38859043  301      3.04862454      1.00000000
    -40.389  0.0000E+00  0.0000E+00  0.0000E+00  0.0000E+00  0.0000E+00  0.0000E+00  0.0000E+00  0.0000E+00  0.0000E+00  0.0000E+00  0.0000E+00  0.0000E+00  0.0000E+00  0.0000E+00  0.0000E+00  0.0000E+00  0.0000E+00  0.0000E+00  0.0000E+00  0.0000E+00  0.0000E+00  0.0000E+00  0.0000E+00  0.0000E+00  0.0000E+00  0.0000E+00  0.0000E+00  0.0000E+00  0.0000E+00  0.0000E+00  0.0000E+00  0.0000E+00  0.0000E+00  0.0000E+00  0.0000E+00  0.0000E+00
      0.000  0.0000E+00  0.0000E+00  0.0000E+00  0.0000E+00  0.0000E+00  0.0000E+00  0.0000E+00  0.0000E+00  0.0000E+00  0.0000E+00  0.0000E+00  0.0000E+00  0.0000E+00  0.0000E+00  0.0000E+00  0.0000E+00  0.0000E+00  0.0000E+00  0.0000E+00  0.0000E+00  0.0000E+00  0.0000E+00  0.0000E+00  0.0000E+00  0.0000E+00  0.0000E+00  0.0000E+00
    -40.093  0.0000E+00  0.0000E+00  0.0000E+00  0.0000E+00  0.0000E+00  0.0000E+00  0.0000E+00  0.0000E+00  0.0000E+00  0.0000E+00  0.0000E+00  0.0000E+00  0.0000E+00  0.0000E+00  0.0000E+00  0.0000E+00  0.0000E+00  0.0000E+00  0.0000E+00  0.0000E+00  0.0000E+00  0.0000E+00  0.0000E+00  0.0000E+00  0.0000E+00  0.0000E+00  0.0000E+00  0.0000E+00  0.0000E+00  0.0000E+00  0.0000E+00  0.0000E+00  0.0000E+00  0.0000E+00  0.0000E+00  0.0000E+00
      0.000  0.0000E+00  0.0000E+00  0.0000E+00  0.0000E+00  0.0000E+00  0.0000E+00  0.0000E+00  0.0000E+00  0.0000E+00  0.0000E+00  0.0000E+00  0.0000E+00  0.0000E+00  0.0000E+00  0.0000E+00  0.0000E+00  0.0000E+00  0.0000E+00  0.0000E+00  0.0000E+00  0.0000E+00  0.0000E+00  0.0000E+00  0.0000E+00  0.0000E+00  0.0000E+00  0.0000E+00
    -39.798  0.0000E+00  0.0000E+00  0.0000E+00  0.0000E+00  0.0000E+00  0.0000E+00  0.0000E+00  0.0000E+00  0.0000E+00  0.0000E+00  0.0000E+00  0.0000E+00  0.0000E+00  0.0000E+00  0.0000E+00  0.0000E+00  0.0000E+00  0.0000E+00  0.0000E+00  0.0000E+00  0.0000E+00  0.0000E+00  0.0000E+00  0.0000E+00  0.0000E+00  0.0000E+00  0.0000E+00  0.0000E+00  0.0000E+00  0.0000E+00  0.0000E+00  0.0000E+00  0.0000E+00  0.0000E+00  0.0000E+00  0.0000E+00
      0.000  0.0000E+00  0.0000E+00  0.0000E+00  0.0000E+00  0.0000E+00  0.0000E+00  0.0000E+00  0.0000E+00  0.0000E+00  0.0000E+00  0.0000E+00  0.0000E+00  0.0000E+00  0.0000E+00  0.0000E+00  0.0000E+00  0.0000E+00  0.0000E+00  0.0000E+00  0.0000E+00  0.0000E+00  0.0000E+00  0.0000E+00  0.0000E+00  0.0000E+00  0.0000E+00  0.0000E+00
    -39.503  0.0000E+00  0.0000E+00  0.0000E+00  0.0000E+00  0.0000E+00  0.0000E+00  0.0000E+00  0.0000E+00  0.0000E+00  0.0000E+00  0.0000E+00  0.0000E+00  0.0000E+00  0.0000E+00  0.0000E+00  0.0000E+00  0.0000E+00  0.0000E+00  0.0000E+00  0.0000E+00  0.0000E+00  0.0000E+00  0.0000E+00  0.0000E+00  0.0000E+00  0.0000E+00  0.0000E+00  0.0000E+00  0.0000E+00  0.0000E+00  0.0000E+00  0.0000E+00  0.0000E+00  0.0000E+00  0.0000E+00  0.0000E+00
      0.000  0.0000E+00  0.0000E+00  0.0000E+00  0.0000E+00  0.0000E+00  0.0000E+00  0.0000E+00  0.0000E+00  0.0000E+00  0.0000E+00  0.0000E+00  0.0000E+00  0.0000E+00  0.0000E+00  0.0000E+00  0.0000E+00  0.0000E+00  0.0000E+00  0.0000E+00  0.0000E+00  0.0000E+00  0.0000E+00  0.0000E+00  0.0000E+00  0.0000E+00  0.0000E+00  0.0000E+00
    -39.208  0.0000E+00  0.0000E+00  0.0000E+00  0.0000E+00  0.0000E+00  0.0000E+00  0.0000E+00  0.0000E+00  0.0000E+00  0.0000E+00  0.0000E+00  0.0000E+00  0.0000E+00  0.0000E+00  0.0000E+00  0.0000E+00  0.0000E+00  0.0000E+00  0.0000E+00  0.0000E+00  0.0000E+00  0.0000E+00  0.0000E+00  0.0000E+00  0.0000E+00  0.0000E+00  0.0000E+00  0.0000E+00  0.0000E+00  0.0000E+00  0.0000E+00  0.0000E+00  0.0000E+00  0.0000E+00  0.0000E+00  0.0000E+00
      0.000  0.0000E+00  0.0000E+00  0.0000E+00  0.0000E+00  0.0000E+00  0.0000E+00  0.0000E+00  0.0000E+00  0.0000E+00  0.0000E+00  0.0000E+00  0.0000E+00  0.0000E+00  0.0000E+00  0.0000E+00  0.0000E+00  0.0000E+00  0.0000E+00  0.0000E+00  0.0000E+00  0.0000E+00  0.0000E+00  0.0000E+00  0.0000E+00  0.0000E+00  0.0000E+00  0.0000E+00
    -38.913  0.0000E+00  0.0000E+00  0.0000E+00  0.0000E+00  0.0000E+00  0.0000E+00  0.0000E+00  0.0000E+00  0.0000E+00  0.0000E+00  0.0000E+00  0.0000E+00  0.0000E+00  0.0000E+00  0.0000E+00  0.0000E+00  0.0000E+00  0.0000E+00  0.0000E+00  0.0000E+00  0.0000E+00  0.0000E+00  0.0000E+00  0.0000E+00  0.0000E+00  0.0000E+00  0.0000E+00  0.0000E+00  0.0000E+00  0.0000E+00  0.0000E+00  0.0000E+00  0.0000E+00  0.0000E+00  0.0000E+00  0.0000E+00
      0.000  0.0000E+00  0.0000E+00  0.0000E+00  0.0000E+00  0.0000E+00  0.0000E+00  0.0000E+00  0.0000E+00  0.0000E+00  0.0000E+00  0.0000E+00  0.0000E+00  0.0000E+00  0.0000E+00  0.0000E+00  0.0000E+00  0.0000E+00  0.0000E+00  0.0000E+00  0.0000E+00  0.0000E+00  0.0000E+00  0.0000E+00  0.0000E+00  0.0000E+00  0.0000E+00  0.0000E+00
    -38.618  0.0000E+00  0.0000E+00  0.0000E+00  0.0000E+00  0.0000E+00  0.0000E+00  0.0000E+00  0.0000E+00  0.0000E+00  0.0000E+00  0.0000E+00  0.0000E+00  0.0000E+00  0.0000E+00  0.0000E+00  0.0000E+00  0.0000E+00  0.0000E+00  0.0000E+00  0.0000E+00  0.0000E+00  0.0000E+00  0.0000E+00  0.0000E+00  0.0000E+00  0.0000E+00  0.0000E+00  0.0000E+00  0.0000E+00  0.0000E+00  0.0000E+00  0.0000E+00  0.0000E+00  0.0000E+00  0.0000E+00  0.0000E+00
      0.000  0.0000E+00  0.0000E+00  0.0000E+00  0.0000E+00  0.0000E+00  0.0000E+00  0.0000E+00  0.0000E+00  0.0000E+00  0.0000E+00  0.0000E+00  0.0000E+00  0.0000E+00  0.0000E+00  0.0000E+00  0.0000E+00  0.0000E+00  0.0000E+00  0.0000E+00  0.0000E+00  0.0000E+00  0.0000E+00  0.0000E+00  0.0000E+00  0.0000E+00  0.0000E+00  0.0000E+00
    -38.322  0.0000E+00  0.0000E+00  0.0000E+00  0.0000E+00  0.0000E+00  0.0000E+00  0.0000E+00  0.0000E+00  0.0000E+00  0.0000E+00  0.0000E+00  0.0000E+00  0.0000E+00  0.0000E+00  0.0000E+00  0.0000E+00  0.0000E+00  0.0000E+00  0.0000E+00  0.0000E+00  0.0000E+00  0.0000E+00  0.0000E+00  0.0000E+00  0.0000E+00  0.0000E+00  0.0000E+00  0.0000E+00  0.0000E+00  0.0000E+00  0.0000E+00  0.0000E+00  0.0000E+00  0.0000E+00  0.0000E+00  0.0000E+00
      0.000  0.0000E+00  0.0000E+00  0.0000E+00  0.0000E+00  0.0000E+00  0.0000E+00  0.0000E+00  0.0000E+00  0.0000E+00  0.0000E+00  0.0000E+00  0.0000E+00  0.0000E+00  0.0000E+00  0.0000E+00  0.0000E+00  0.0000E+00  0.0000E+00  0.0000E+00  0.0000E+00  0.0000E+00  0.0000E+00  0.0000E+00  0.0000E+00  0.0000E+00  0.0000E+00  0.0000E+00
    -38.027  0.0000E+00  0.0000E+00  0.0000E+00  0.0000E+00  0.0000E+00  0.0000E+00  0.0000E+00  0.0000E+00  0.0000E+00  0.0000E+00  0.0000E+00  0.0000E+00  0.0000E+00  0.0000E+00  0.0000E+00  0.0000E+00  0.0000E+00  0.0000E+00  0.0000E+00  0.0000E+00  0.0000E+00  0.0000E+00  0.0000E+00  0.0000E+00  0.0000E+00  0.0000E+00  0.0000E+00  0.0000E+00  0.0000E+00  0.0000E+00  0.0000E+00  0.0000E+00  0.0000E+00  0.0000E+00  0.0000E+00  0.0000E+00
      0.000  0.0000E+00  0.0000E+00  0.0000E+00  0.0000E+00  0.0000E+00  0.0000E+00  0.0000E+00  0.0000E+00  0.0000E+00  0.0000E+00  0.0000E+00  0.0000E+00  0.0000E+00  0.0000E+00  0.0000E+00  0.0000E+00  0.0000E+00  0.0000E+00  0.0000E+00  0.0000E+00  0.0000E+00  0.0000E+00  0.0000E+00  0.0000E+00  0.0000E+00  0.0000E+00  0.0000E+00
    -37.732  0.0000E+00  0.0000E+00  0.0000E+00  0.0000E+00  0.0000E+00  0.0000E+00  0.0000E+00  0.0000E+00  0.0000E+00  0.0000E+00  0.0000E+00  0.0000E+00  0.0000E+00  0.0000E+00  0.0000E+00  0.0000E+00  0.0000E+00  0.0000E+00  0.0000E+00  0.0000E+00  0.0000E+00  0.0000E+00  0.0000E+00  0.0000E+00  0.0000E+00  0.0000E+00  0.0000E+00  0.0000E+00  0.0000E+00  0.0000E+00  0.0000E+00  0.0000E+00  0.0000E+00  0.0000E+00  0.0000E+00  0.0000E+00
      0.000  0.0000E+00  0.0000E+00  0.0000E+00  0.0000E+00  0.0000E+00  0.0000E+00  0.0000E+00  0.0000E+00  0.0000E+00  0.0000E+00  0.0000E+00  0.0000E+00  0.0000E+00  0.0000E+00  0.0000E+00  0.0000E+00  0.0000E+00  0.0000E+00  0.0000E+00  0.0000E+00  0.0000E+00  0.0000E+00  0.0000E+00  0.0000E+00  0.0000E+00  0.0000E+00  0.0000E+00
    -37.437  0.2600E-13 -0.3932E-18  0.2160E-20  0.2600E-13  0.1838E-20  0.1338E-23  0.2973E-22  0.1835E-20  0.1679E-20  0.2651E-22 -0.2989E-22  0.1674E-20  0.1523E-20 -0.2616E-22 -0.9599E-24  0.1520E-20  0.3293E-20  0.2677E-23  0.1656E-23  0.3292E-20  0.3502E-20  0.1433E-23 -0.1148E-20  0.3020E-20  0.1722E-20  0.2275E-25 -0.4135E-24  0.1722E-20  0.3578E-20  0.1021E-20 -0.9118E-25  0.3094E-20  0.1700E-20  0.5633E-24  0.7158E-24  0.1700E-20
      0.000  0.1194E-24  0.1773E-23  0.1818E-21  0.1664E-23 -0.1668E-25 -0.3121E-25  0.1492E-23  0.2925E-21  0.1637E-24 -0.1100E-23  0.2924E-21  0.1645E-22  0.1828E-24 -0.4147E-24  0.1630E-22  0.2425E-21  0.9877E-24  0.1707E-24  0.2424E-21  0.4168E-21  0.3097E-25  0.3742E-24  0.4167E-21  0.1528E-21 -0.1278E-23  0.1401E-24  0.1527E-21
    -37.142  0.3651E-07 -0.5473E-12  0.2915E-14  0.3651E-07  0.2500E-14  0.1773E-17  0.4003E-16  0.2496E-14  0.2285E-14  0.3499E-16 -0.4024E-16  0.2277E-14  0.2072E-14 -0.3449E-16 -0.1280E-17  0.2068E-14  0.4679E-14  0.3774E-17  0.2489E-17  0.4679E-14  0.4972E-14  0.2086E-17 -0.1620E-14  0.4295E-14  0.2532E-14  0.9716E-19 -0.5729E-18  0.2532E-14  0.5080E-14  0.1433E-14 -0.1365E-18  0.4401E-14  0.2501E-14  0.8290E-18  0.1085E-17  0.2501E-14
      0.000  0.1840E-18  0.2560E-17  0.2658E-15  0.2345E-17 -0.2181E-19 -0.4202E-19  0.2095E-17  0.4287E-15  0.2507E-18 -0.1583E-17  0.4286E-15  0.2255E-16  0.2642E-18 -0.6027E-18  0.2234E-16  0.3541E-15  0.1442E-17  0.2446E-18  0.3540E-15  0.6108E-15  0.4047E-19  0.5487E-18  0.6107E-15  0.2225E-15 -0.1817E-17  0.2000E-18  0.2224E-15
    -36.847  0.7465E-03 -0.1110E-07  0.5797E-10  0.7465E-03  0.4954E-10  0.3420E-13  0.7848E-12  0.4946E-10  0.4527E-10  0.6723E-12 -0.7887E-12  0.4511E-10  0.4105E-10 -0.6623E-12 -0.2484E-13  0.4098E-10  0.9657E-10  0.7731E-13  0.5397E-13  0.9657E-10  0.1026E-09  0.4400E-13 -0.3325E-10  0.8871E-10  0.5406E-10  0.3363E-14 -0.1157E-13  0.5406E-10  0.1048E-09  0.2924E-10 -0.3026E-14  0.9091E-10  0.5344E-10  0.1768E-13  0.2379E-13  0.5344E-10
      0.000  0.4060E-14  0.5364E-13  0.5639E-11  0.4805E-13 -0.4169E-15 -0.8264E-15  0.4277E-13  0.9115E-11  0.5525E-14 -0.3305E-13  0.9113E-11  0.4504E-12  0.5525E-14 -0.1273E-13  0.4459E-12  0.7500E-11  0.3058E-13  0.5064E-14  0.7498E-11  0.1298E-10  0.7147E-15  0.1165E-13  0.1298E-10  0.4703E-11 -0.3763E-13  0.4169E-14  0.4701E-11
    -36.551  0.2566E+00 -0.3785E-05  0.1954E-07  0.2566E+00  0.1652E-07  0.1111E-10  0.2589E-09  0.1649E-07  0.1509E-07  0.2176E-09 -0.2601E-09  0.1504E-07  0.1369E-07 -0.2143E-09 -0.8111E-11  0.1367E-07  0.3342E-07  0.2656E-10  0.1950E-10  0.3342E-07  0.3547E-07  0.1550E-10 -0.1145E-07  0.3071E-07  0.1931E-07  0.1587E-11 -0.3920E-11  0.1931E-07  0.3626E-07  0.1002E-07 -0.1120E-11  0.3148E-07  0.1910E-07  0.6307E-11  0.8695E-11  0.1910E-07
      0.000  0.1478E-11  0.1883E-10  0.2002E-08  0.1652E-10 -0.1352E-12 -0.2742E-12  0.1465E-10  0.3243E-08  0.2017E-11 -0.1156E-10  0.3242E-08  0.1514E-09  0.1928E-11 -0.4501E-11  0.1498E-09  0.2659E-08  0.1086E-10  0.1756E-11  0.2658E-08  0.4616E-08  0.2007E-12  0.4135E-11  0.4615E-08  0.1664E-08 -0.1308E-10  0.1465E-11  0.1663E-08
    -36.256  0.2227E+01 -0.3263E-04  0.1675E-06  0.2227E+01  0.1397E-06  0.9178E-10  0.2169E-08  0.1394E-06  0.1276E-06  0.1794E-08 -0.2178E-08  0.1272E-06  0.1158E-06 -0.1765E-08 -0.6733E-10  0.1156E-06  0.2913E-06  0.2301E-09  0.1760E-09  0.2913E-06  0.3090E-06  0.1370E-09 -0.9941E-07  0.2677E-06  0.1729E-06  0.1683E-10 -0.3356E-10  0.1729E-06  0.3160E-06  0.8663E-07 -0.1034E-10  0.2745E-06  0.1710E-06  0.5639E-10  0.7928E-10  0.1710E-06
      0.000  0.1335E-10  0.1662E-09  0.1784E-07  0.1432E-09 -0.1121E-11 -0.2312E-11  0.1266E-09  0.2893E-07  0.1831E-10 -0.1018E-09  0.2892E-07  0.1289E-08  0.1688E-10 -0.3997E-10  0.1275E-08  0.2365E-07  0.9683E-10  0.1531E-10  0.2364E-07  0.4116E-07  0.1358E-11  0.3678E-10  0.4116E-07  0.1478E-07 -0.1146E-09  0.1299E-10  0.1477E-07
    -35.961  0.8345E+00 -0.1215E-04  0.6218E-07  0.8345E+00  0.5106E-07  0.3281E-10  0.7856E-09  0.5098E-07  0.4668E-07  0.6401E-09 -0.7889E-09  0.4652E-07  0.4235E-07 -0.6293E-09 -0.2417E-10  0.4227E-07  0.1095E-06  0.8596E-10  0.6820E-10  0.1095E-06  0.1161E-06  0.5208E-10 -0.3724E-07  0.1006E-06  0.6659E-07  0.7345E-11 -0.1240E-10  0.6659E-07  0.1188E-06  0.3233E-07 -0.4096E-11  0.1032E-06  0.6589E-07  0.2170E-10  0.3104E-10  0.6589E-07
      0.000  0.5165E-11  0.6318E-10  0.6841E-08  0.5356E-10 -0.4042E-12 -0.8443E-12  0.4722E-10  0.1111E-07  0.7126E-11 -0.3860E-10  0.1111E-07  0.4747E-09  0.6361E-11 -0.1529E-10  0.4694E-09  0.9057E-08  0.3717E-10  0.5755E-11  0.9054E-08  0.1580E-07  0.3599E-12  0.1408E-10  0.1580E-07  0.5654E-08 -0.4330E-10  0.4973E-11  0.5651E-08
    -35.666  0.9936E-02 -0.1437E-06  0.7343E-09  0.9936E-02  0.5901E-09  0.3689E-12  0.8976E-11  0.5892E-09  0.5396E-09  0.7180E-11 -0.9011E-11  0.5378E-09  0.4897E-09 -0.7054E-11 -0.2731E-12  0.4888E-09  0.1306E-08  0.1019E-11  0.8431E-12  0.1306E-08  0.1385E-08  0.6293E-12 -0.4428E-09  0.1200E-08  0.8183E-09  0.1018E-12 -0.1450E-12  0.8183E-09  0.1417E-08  0.3828E-09 -0.5209E-13  0.1232E-08  0.8100E-09  0.2663E-12  0.3886E-12  0.8100E-09
      0.000  0.6342E-13  0.7646E-12  0.8364E-10  0.6356E-12 -0.4618E-14 -0.9760E-14  0.5583E-12  0.1361E-09  0.8835E-13 -0.4660E-12  0.1360E-09  0.5534E-11  0.7596E-13 -0.1863E-12  0.5470E-11  0.1105E-09  0.4550E-12  0.6863E-13  0.1105E-09  0.1933E-09  0.1931E-14  0.1716E-12  0.1933E-09  0.6891E-10 -0.5206E-12  0.6092E-13  0.6888E-10
    -35.371  0.2207E-05 -0.3168E-10  0.1620E-12  0.2207E-05  0.1269E-12  0.7689E-16  0.1905E-14  0.1267E-12  0.1161E-12  0.1493E-14 -0.1912E-14  0.1157E-12  0.1054E-12 -0.1466E-14 -0.5723E-16  0.1052E-12  0.2904E-12  0.2247E-15  0.1944E-15  0.2904E-12  0.3078E-12  0.1416E-15 -0.9810E-13  0.2668E-12  0.1878E-12  0.2593E-16 -0.3151E-16  0.1878E-12  0.3152E-12  0.8444E-13 -0.1241E-16  0.2740E-12  0.1860E-12  0.6106E-16  0.9086E-16  0.1860E-12
      0.000  0.1446E-16  0.1726E-15  0.1910E-13  0.1405E-15 -0.9876E-18 -0.2104E-17  0.1229E-15  0.3111E-13  0.2040E-16 -0.1050E-15  0.3110E-13  0.1202E-14  0.1686E-16 -0.4240E-16  0.1187E-14  0.2518E-13  0.1040E-15  0.1523E-16  0.2517E-13  0.4417E-13 -0.1995E-18  0.3898E-16  0.4417E-13  0.1568E-13 -0.1168E-15  0.1399E-16  0.1567E-13
    -35.076  0.7398E-11 -0.1054E-15  0.5395E-18  0.7398E-11  0.4112E-18  0.2411E-21  0.6089E-20  0.4106E-18  0.3763E-18  0.4676E-20 -0.6110E-20  0.3750E-18  0.3419E-18 -0.4586E-20 -0.1805E-21  0.3412E-18  0.9726E-18  0.7465E-21  0.6747E-21  0.9726E-18  0.1031E-17  0.4797E-21 -0.3276E-18  0.8931E-18  0.6496E-18  0.9780E-22 -0.1031E-21  0.6496E-18  0.1056E-17  0.2807E-18 -0.4460E-22  0.9181E-18  0.6435E-18  0.2111E-21  0.3200E-21  0.6435E-18
      0.000  0.4943E-22  0.5872E-21  0.6571E-19  0.4682E-21 -0.3207E-23 -0.6851E-23  0.4078E-21  0.1072E-18  0.7079E-22 -0.3564E-21  0.1072E-18  0.3936E-20  0.5625E-22 -0.1454E-21  0.3886E-20  0.8644E-19  0.3588E-21  0.5089E-22  0.8641E-19  0.1521E-18 -0.3020E-23  0.1333E-21  0.1521E-18  0.5376E-19 -0.3956E-21  0.4860E-22  0.5373E-19
    -34.780  0.0000E+00  0.0000E+00  0.0000E+00  0.0000E+00  0.0000E+00  0.0000E+00  0.0000E+00  0.0000E+00  0.0000E+00  0.0000E+00  0.0000E+00  0.0000E+00  0.0000E+00  0.0000E+00  0.0000E+00  0.0000E+00  0.0000E+00  0.0000E+00  0.0000E+00  0.0000E+00  0.0000E+00  0.0000E+00  0.0000E+00  0.0000E+00  0.0000E+00  0.0000E+00  0.0000E+00  0.0000E+00  0.0000E+00  0.0000E+00  0.0000E+00  0.0000E+00  0.0000E+00  0.0000E+00  0.0000E+00  0.0000E+00
      0.000  0.0000E+00  0.0000E+00  0.0000E+00  0.0000E+00  0.0000E+00  0.0000E+00  0.0000E+00  0.0000E+00  0.0000E+00  0.0000E+00  0.0000E+00  0.0000E+00  0.0000E+00  0.0000E+00  0.0000E+00  0.0000E+00  0.0000E+00  0.0000E+00  0.0000E+00  0.0000E+00  0.0000E+00  0.0000E+00  0.0000E+00  0.0000E+00  0.0000E+00  0.0000E+00  0.0000E+00
    -34.485  0.0000E+00  0.0000E+00  0.0000E+00  0.0000E+00  0.0000E+00  0.0000E+00  0.0000E+00  0.0000E+00  0.0000E+00  0.0000E+00  0.0000E+00  0.0000E+00  0.0000E+00  0.0000E+00  0.0000E+00  0.0000E+00  0.0000E+00  0.0000E+00  0.0000E+00  0.0000E+00  0.0000E+00  0.0000E+00  0.0000E+00  0.0000E+00  0.0000E+00  0.0000E+00  0.0000E+00  0.0000E+00  0.0000E+00  0.0000E+00  0.0000E+00  0.0000E+00  0.0000E+00  0.0000E+00  0.0000E+00  0.0000E+00
      0.000  0.0000E+00  0.0000E+00  0.0000E+00  0.0000E+00  0.0000E+00  0.0000E+00  0.0000E+00  0.0000E+00  0.0000E+00  0.0000E+00  0.0000E+00  0.0000E+00  0.0000E+00  0.0000E+00  0.0000E+00  0.0000E+00  0.0000E+00  0.0000E+00  0.0000E+00  0.0000E+00  0.0000E+00  0.0000E+00  0.0000E+00  0.0000E+00  0.0000E+00  0.0000E+00  0.0000E+00
    -34.190  0.1569E-11  0.1036E-15 -0.1715E-17 -0.1569E-11  0.2414E-18 -0.5029E-21 -0.5623E-20 -0.2407E-18  0.2210E-18 -0.5336E-20  0.5563E-20 -0.2197E-18  0.2002E-18  0.4772E-20  0.1979E-21 -0.1996E-18  0.1629E-18 -0.1221E-20  0.6496E-21 -0.1629E-18  0.1791E-18 -0.6832E-21 -0.6721E-19 -0.1467E-18  0.1319E-18 -0.9871E-21  0.3646E-21 -0.1319E-18  0.1785E-18  0.5993E-19 -0.3119E-21 -0.1463E-18  0.9078E-19 -0.3929E-21 -0.1736E-21 -0.9071E-19
      0.000  0.3411E-22 -0.8397E-22 -0.8436E-20  0.1361E-21 -0.5766E-23  0.1703E-23 -0.1134E-21  0.1371E-19  0.8274E-22  0.6103E-22 -0.1370E-19  0.5826E-21 -0.2099E-22  0.3334E-22 -0.5629E-21  0.1175E-19 -0.5498E-22  0.1369E-23 -0.1174E-19  0.1999E-19  0.3629E-23 -0.1874E-22 -0.1998E-19  0.7219E-20  0.8953E-22  0.6468E-23 -0.7210E-20
    -33.895  0.7274E-06  0.4740E-10 -0.7649E-12 -0.7274E-06  0.1071E-12 -0.2159E-15 -0.2464E-14 -0.1068E-12  0.9802E-13 -0.2271E-14  0.2436E-14 -0.9744E-13  0.8877E-13  0.2029E-14  0.8412E-16 -0.8848E-13  0.7725E-13 -0.5897E-15  0.3255E-15 -0.7722E-13  0.8481E-13 -0.3216E-15 -0.3146E-13 -0.6976E-13  0.6390E-13 -0.4693E-15  0.1532E-15 -0.6387E-13  0.8445E-13  0.2785E-13 -0.1430E-15 -0.6955E-13  0.4479E-13 -0.1766E-15 -0.9336E-16 -0.4476E-13
      0.000  0.1735E-16 -0.4162E-16 -0.4156E-14  0.6336E-16 -0.2596E-17  0.7285E-18 -0.5252E-16  0.6776E-14  0.4125E-16  0.2972E-16 -0.6771E-14  0.2640E-15 -0.9101E-17  0.1617E-16 -0.2545E-15  0.5783E-14 -0.2736E-16  0.8469E-18 -0.5778E-14  0.9874E-14  0.1617E-17 -0.1043E-16 -0.9869E-14  0.3547E-14  0.4410E-16  0.3012E-17 -0.3543E-14
    -33.600  0.5056E-02  0.3254E-06 -0.5155E-08 -0.5056E-02  0.7117E-09 -0.1387E-11 -0.1616E-10 -0.7098E-09  0.6515E-09 -0.1448E-10  0.1597E-10 -0.6477E-09  0.5900E-09  0.1293E-10  0.5354E-12 -0.5880E-09  0.5462E-09 -0.4227E-11  0.2412E-11 -0.5460E-09  0.5990E-09 -0.2259E-11 -0.2200E-09 -0.4944E-09  0.4623E-09 -0.3329E-11  0.9557E-12 -0.4621E-09  0.5964E-09  0.1935E-09 -0.9900E-12 -0.4928E-09  0.3293E-09 -0.1190E-11 -0.7304E-12 -0.3291E-09
      0.000  0.1307E-12 -0.3059E-12 -0.3048E-10  0.4397E-12 -0.1749E-13  0.4776E-14 -0.3625E-12  0.4984E-10  0.3053E-12  0.2159E-12 -0.4980E-10  0.1789E-11 -0.5898E-13  0.1165E-12 -0.1721E-11  0.4235E-10 -0.2026E-12  0.7502E-14 -0.4231E-10  0.7256E-10  0.1076E-13 -0.8453E-13 -0.7252E-10  0.2594E-10  0.3229E-12  0.2077E-13 -0.2591E-10