   2   2   0   0
  0.2234237E+02  0.3983133E-09  0.3983133E-09  0.3983133E-09  0.5000000E-15
  1.000000000000000E-004
  CAR 
 unknown system                          
     63.35723798    -12.43175257  301      4.05509339      1.00000000
    -12.432  0.0000E+00  0.0000E+00
    -12.179  0.0000E+00  0.0000E+00
    -11.926  0.0000E+00  0.0000E+00
    -11.674  0.0000E+00  0.0000E+00
    -11.421  0.0000E+00  0.0000E+00
    -11.169  0.0000E+00  0.0000E+00
    -10.916  0.0000E+00  0.0000E+00
    -10.663  0.0000E+00  0.0000E+00
    -10.411  0.0000E+00  0.0000E+00
    -10.158  0.0000E+00  0.0000E+00
     -9.905  0.0000E+00  0.0000E+00
     -9.653  0.0000E+00  0.0000E+00
     -9.400 -0.1755E-30 -0.4435E-31
     -9.148 -0.9766E-06 -0.2467E-06
     -8.895  0.3713E-01  0.9380E-02
     -8.642  0.1688E+00  0.5202E-01
     -8.390  0.3439E+00  0.1389E+00
     -8.137  0.3181E-03  0.1390E+00
     -7.884  0.4377E+00  0.2496E+00
     -7.632  0.1184E+01  0.5486E+00
     -7.379 -0.9213E-02  0.5463E+00
     -7.127  0.2175E+00  0.6013E+00
     -6.874  0.1003E+01  0.8548E+00
     -6.621  0.1810E+01  0.1312E+01
     -6.369 -0.2592E-01  0.1306E+01
     -6.116  0.2385E+00  0.1366E+01
     -5.863  0.1973E+01  0.1864E+01
     -5.611 -0.1206E-01  0.1861E+01
     -5.358 -0.1802E-16  0.1861E+01
     -5.105 -0.7586E-02  0.1859E+01
     -4.853  0.1108E+01  0.2139E+01
     -4.600 -0.1216E-02  0.2139E+01
     -4.348 -0.4281E-18  0.2139E+01
     -4.095 -0.2697E-01  0.2132E+01
     -3.842  0.1729E+01  0.2569E+01
     -3.590  0.7550E+00  0.2760E+01
     -3.337  0.7687E+00  0.2954E+01
     -3.084 -0.2919E-01  0.2946E+01
     -2.832  0.1818E+01  0.3406E+01
     -2.579 -0.2995E-01  0.3398E+01
     -2.327  0.7602E-01  0.3417E+01
     -2.074  0.4371E+00  0.3528E+01
     -1.821 -0.2652E-13  0.3528E+01
     -1.569  0.8460E-01  0.3549E+01
     -1.316  0.7950E+00  0.3750E+01
     -1.063 -0.6091E-10  0.3750E+01
     -0.811  0.3135E+00  0.3829E+01
     -0.558  0.5714E+00  0.3974E+01
     -0.306  0.7923E+00  0.4174E+01
     -0.053  0.8095E-01  0.4194E+01
      0.200  0.2667E+01  0.4868E+01
      0.452 -0.5773E-01  0.4853E+01
      0.705  0.1094E+01  0.5130E+01
      0.958  0.1960E+01  0.5625E+01
      1.210  0.1280E+01  0.5948E+01
      1.463  0.1719E+01  0.6383E+01
      1.716  0.1308E+01  0.6713E+01
      1.968  0.1573E+01  0.7110E+01
      2.221  0.1865E+00  0.7157E+01
      2.473  0.1090E+01  0.7433E+01
      2.726  0.1012E+01  0.7688E+01
      2.979  0.9769E-01  0.7713E+01
      3.231  0.4413E+00  0.7824E+01
      3.484  0.5858E+00  0.7972E+01
      3.737 -0.8824E-03  0.7972E+01
      3.989  0.1108E+00  0.8000E+01
      4.242  0.1807E+00  0.8046E+01
      4.494  0.3310E+00  0.8130E+01
      4.747  0.4037E+00  0.8231E+01
      5.000  0.1188E+01  0.8532E+01
      5.252 -0.3075E-01  0.8524E+01
      5.505  0.8661E+00  0.8743E+01
      5.758  0.2469E+01  0.9366E+01
      6.010  0.6394E+00  0.9528E+01
      6.263 -0.3335E-03  0.9528E+01
      6.515  0.1160E+00  0.9557E+01
      6.768  0.2865E+01  0.1028E+02
      7.021  0.9303E+00  0.1052E+02
      7.273  0.2284E+01  0.1109E+02
      7.526  0.1295E+01  0.1142E+02
      7.779  0.2244E+01  0.1199E+02
      8.031  0.8653E+00  0.1221E+02
      8.284  0.1219E+01  0.1251E+02
      8.537  0.1268E+01  0.1283E+02
      8.789  0.1555E+00  0.1287E+02
      9.042  0.1810E+01  0.1333E+02
      9.294  0.1116E+01  0.1361E+02
      9.547 -0.2767E-02  0.1361E+02
      9.800  0.4416E+00  0.1372E+02
     10.052  0.1811E+01  0.1418E+02
     10.305  0.3464E+00  0.1427E+02
     10.558  0.2303E+01  0.1485E+02
     10.810  0.1074E+01  0.1512E+02
     11.063  0.2404E+01  0.1573E+02
     11.315  0.1127E+01  0.1601E+02
     11.568  0.8575E+00  0.1623E+02
     11.821  0.6061E+00  0.1638E+02
     12.073  0.8323E+00  0.1659E+02
     12.326  0.1563E+01  0.1699E+02
     12.579  0.1258E+01  0.1731E+02
     12.831  0.1045E+01  0.1757E+02
     13.084  0.1005E+01  0.1782E+02
     13.337  0.2555E+01  0.1847E+02
     13.589  0.3526E+00  0.1856E+02
     13.842  0.1734E+01  0.1900E+02
     14.094  0.1323E+01  0.1933E+02
     14.347  0.5983E+00  0.1948E+02
     14.600  0.4170E+00  0.1959E+02
     14.852  0.1384E+00  0.1962E+02
     15.105  0.4010E+01  0.2063E+02
     15.358  0.1027E+00  0.2066E+02
     15.610  0.1859E+01  0.2113E+02
     15.863  0.2988E+01  0.2188E+02
     16.115  0.2079E+01  0.2241E+02
     16.368  0.9593E+00  0.2265E+02
     16.621  0.2174E+01  0.2320E+02
     16.873  0.2011E+01  0.2371E+02
     17.126  0.1883E+01  0.2419E+02
     17.379  0.1109E+01  0.2447E+02
     17.631  0.1335E+01  0.2480E+02
     17.884  0.1341E+01  0.2514E+02
     18.136 -0.2903E-01  0.2513E+02
     18.389  0.2252E+01  0.2570E+02
     18.642 -0.3407E-01  0.2569E+02
     18.894  0.2237E+00  0.2575E+02
     19.147 -0.3912E-02  0.2575E+02
     19.400  0.1395E+01  0.2610E+02
     19.652  0.2263E+01  0.2667E+02
     19.905  0.1771E+01  0.2712E+02
     20.158  0.5722E+01  0.2857E+02
     20.410  0.9721E+00  0.2881E+02
     20.663  0.1555E+01  0.2921E+02
     20.915  0.1547E+01  0.2960E+02
     21.168  0.1684E+01  0.3002E+02
     21.421  0.1361E+01  0.3037E+02
     21.673  0.1808E+01  0.3082E+02
     21.926  0.1908E+01  0.3130E+02
     22.179  0.2883E+01  0.3203E+02
     22.431  0.1283E+01  0.3236E+02
     22.684  0.1432E+01  0.3272E+02
     22.936  0.7185E+00  0.3290E+02
     23.189  0.8512E+00  0.3312E+02
     23.442  0.9002E+00  0.3334E+02
     23.694  0.1455E+01  0.3371E+02
     23.947  0.1077E+01  0.3398E+02
     24.200  0.2792E+01  0.3469E+02
     24.452  0.1028E+01  0.3495E+02
     24.705  0.2693E+01  0.3563E+02
     24.957  0.1073E+01  0.3590E+02
     25.210  0.3544E+01  0.3679E+02
     25.463  0.1054E+01  0.3706E+02
     25.715  0.3465E+01  0.3794E+02
     25.968  0.2647E+01  0.3860E+02
     26.221  0.1809E+01  0.3906E+02
     26.473  0.3331E+01  0.3990E+02
     26.726  0.2093E+01  0.4043E+02
     26.979  0.1985E+01  0.4093E+02
     27.231  0.8715E+00  0.4115E+02
     27.484  0.7913E+00  0.4135E+02
     27.736  0.1865E+01  0.4182E+02
     27.989  0.1796E+01  0.4228E+02
     28.242  0.3925E+00  0.4238E+02
     28.494  0.7715E+00  0.4257E+02
     28.747  0.1541E+01  0.4296E+02
     29.000  0.1666E+01  0.4338E+02
     29.252  0.2535E+01  0.4402E+02
     29.505  0.2498E+01  0.4465E+02
     29.757  0.1208E+01  0.4496E+02
     30.010  0.5710E+00  0.4510E+02
     30.263  0.3223E+01  0.4592E+02
     30.515  0.2656E+01  0.4659E+02
     30.768  0.3964E+01  0.4759E+02
     31.021  0.2319E+01  0.4818E+02
     31.273  0.1398E+01  0.4853E+02
     31.526  0.4154E+01  0.4958E+02
     31.778  0.2368E+01  0.5018E+02
     32.031  0.2384E+01  0.5078E+02
     32.284  0.2409E+01  0.5139E+02
     32.536  0.1767E+01  0.5183E+02
     32.789  0.4576E+00  0.5195E+02
     33.042  0.2574E+01  0.5260E+02
     33.294  0.1040E+01  0.5286E+02
     33.547  0.3182E+01  0.5367E+02
     33.800  0.4357E+00  0.5378E+02
     34.052  0.2049E+01  0.5429E+02
     34.305  0.8618E+00  0.5451E+02
     34.557  0.9114E+00  0.5474E+02
     34.810  0.1794E+01  0.5519E+02
     35.063  0.3752E+01  0.5614E+02
     35.315  0.1541E+01  0.5653E+02
     35.568  0.1245E+01  0.5685E+02
     35.821  0.2657E+01  0.5752E+02
     36.073  0.3140E+01  0.5831E+02
     36.326  0.2518E+01  0.5895E+02
     36.578  0.5053E+01  0.6022E+02
     36.831  0.1797E+01  0.6068E+02
     37.084  0.7256E+00  0.6086E+02
     37.336  0.1155E+01  0.6115E+02
     37.589  0.2344E+01  0.6174E+02
     37.842  0.1612E+01  0.6215E+02
     38.094  0.2251E+01  0.6272E+02
     38.347  0.2526E+01  0.6336E+02
     38.600  0.3756E+01  0.6431E+02
     38.852  0.2237E+01  0.6487E+02
     39.105  0.2359E+01  0.6547E+02
     39.357  0.1691E+01  0.6590E+02
     39.610  0.2247E+01  0.6646E+02
     39.863  0.1905E+01  0.6694E+02
     40.115  0.3075E+01  0.6772E+02
     40.368  0.1385E+01  0.6807E+02
     40.621  0.1220E+01  0.6838E+02
     40.873  0.1845E+01  0.6885E+02
     41.126  0.2593E-01  0.6885E+02
     41.378  0.1100E+01  0.6913E+02
     41.631  0.2742E+01  0.6982E+02
     41.884  0.3566E+01  0.7072E+02
     42.136  0.4396E+01  0.7183E+02
     42.389  0.8455E+00  0.7205E+02
     42.642  0.2984E+01  0.7280E+02
     42.894  0.2340E+01  0.7339E+02
     43.147  0.2939E+01  0.7413E+02
     43.399  0.1334E+01  0.7447E+02
     43.652  0.2887E+01  0.7520E+02
     43.905  0.2985E+01  0.7596E+02
     44.157  0.1221E+00  0.7599E+02
     44.410  0.3910E+01  0.7697E+02
     44.663  0.2800E+01  0.7768E+02
     44.915  0.4138E+01  0.7873E+02
     45.168  0.2264E+01  0.7930E+02
     45.421  0.4165E+00  0.7940E+02
     45.673  0.2506E+01  0.8004E+02
     45.926  0.3060E+01  0.8081E+02
     46.178  0.1660E+01  0.8123E+02
     46.431  0.2938E+01  0.8197E+02
     46.684  0.1358E+01  0.8231E+02
     46.936  0.2406E+00  0.8238E+02
     47.189  0.3701E+01  0.8331E+02
     47.442  0.7371E+00  0.8350E+02
     47.694  0.1650E+01  0.8391E+02
     47.947  0.2895E+01  0.8465E+02
     48.199  0.2634E+01  0.8531E+02
     48.452  0.3628E+01  0.8623E+02
     48.705  0.2486E+01  0.8685E+02
     48.957  0.2402E+01  0.8746E+02
     49.210  0.3422E+01  0.8833E+02
     49.463  0.1026E+01  0.8859E+02
     49.715  0.2973E+01  0.8934E+02
     49.968  0.3749E+01  0.9028E+02
     50.220  0.1210E+01  0.9059E+02
     50.473  0.1721E+01  0.9102E+02
     50.726  0.3069E+01  0.9180E+02
     50.978  0.2643E+01  0.9247E+02
     51.231  0.3590E+01  0.9337E+02
     51.484  0.2599E+01  0.9403E+02
     51.736  0.2819E+01  0.9474E+02
     51.989  0.3177E+00  0.9482E+02
     52.242  0.9826E+00  0.9507E+02
     52.494  0.4060E+01  0.9610E+02
     52.747  0.1540E+01  0.9649E+02
     52.999  0.2135E+01  0.9703E+02
     53.252  0.4295E+01  0.9811E+02
     53.505  0.9365E+00  0.9835E+02
     53.757  0.2241E+01  0.9891E+02
     54.010  0.2527E+01  0.9955E+02
     54.263  0.1626E+01  0.9996E+02
     54.515  0.2568E+01  0.1006E+03
     54.768  0.1991E+01  0.1011E+03
     55.020  0.1077E+01  0.1014E+03
     55.273  0.1036E+01  0.1016E+03
     55.526  0.3832E+01  0.1026E+03
     55.778  0.2338E+01  0.1032E+03
     56.031  0.2642E+01  0.1039E+03
     56.284  0.3415E+01  0.1047E+03
     56.536  0.3018E+01  0.1055E+03
     56.789  0.1297E+01  0.1058E+03
     57.041  0.1633E+01  0.1062E+03
     57.294  0.5248E+01  0.1076E+03
     57.547  0.1734E+01  0.1080E+03
     57.799  0.2906E+01  0.1087E+03
     58.052  0.2139E+01  0.1093E+03
     58.305  0.3871E+01  0.1103E+03
     58.557  0.2294E+01  0.1108E+03
     58.810  0.8438E+00  0.1110E+03
     59.063  0.9055E+00  0.1113E+03
     59.315  0.8473E+00  0.1115E+03
     59.568  0.1795E+01  0.1119E+03
     59.820 -0.2867E-02  0.1119E+03
     60.073  0.2228E+00  0.1120E+03
     60.326  0.0000E+00  0.1120E+03
     60.578  0.0000E+00  0.1120E+03
     60.831  0.0000E+00  0.1120E+03
     61.084  0.0000E+00  0.1120E+03
     61.336  0.0000E+00  0.1120E+03
     61.589  0.0000E+00  0.1120E+03
     61.841  0.0000E+00  0.1120E+03
     62.094  0.0000E+00  0.1120E+03
     62.347  0.0000E+00  0.1120E+03
     62.599  0.0000E+00  0.1120E+03
     62.852  0.0000E+00  0.1120E+03
     63.105  0.0000E+00  0.1120E+03
     63.357  0.0000E+00  0.1120E+03
