    2    2    1    1
  0.2657030E+02  0.4220013E-09  0.4220013E-09  0.4220013E-09  0.5000000E-15
  1.000000000000000E-004
  CAR 
 unknown system                          
     23     78    105
 
  0.0000000E+00  0.0000000E+00  0.0000000E+00  0.1953125E-02
    1      -36.363569   1.000000
    2      -33.198722   1.000000
    3      -17.170337   1.000000
    4      -16.463219   1.000000
    5      -14.114853   1.000000
    6      -12.945100   1.000000
    7      -12.329368   1.000000
    8      -11.848779   1.000000
    9       -9.118581   1.000000
   10       -9.102790   1.000000
   11        0.319414   1.000000
   12        0.423517   1.000000
   13        0.464788   1.000000
   14        0.784075   1.000000
   15        0.998842   1.000000
   16        1.085557   1.000000
   17        1.154816   1.000000
   18        1.758487   1.000000
   19        1.818853   1.000000
   20        1.885492   1.000000
   21        2.332098   1.000000
   22        2.340660   1.000000
   23        2.371126   0.999999
   24        5.334674   0.000000
   25        5.622343   0.000000
   26        5.649478   0.000000
   27        5.687115   0.000000
   28        5.741041   0.000000
   29        6.245008   0.000000
   30        6.296482   0.000000
   31        6.317017   0.000000
   32        6.540071   0.000000
   33        6.549700   0.000000
   34        7.277957   0.000000
   35        7.280060   0.000000
   36       11.230925   0.000000
   37       11.290044   0.000000
   38       13.968175   0.000000
   39       14.124029   0.000000
   40       14.167819   0.000000
   41       14.248747   0.000000
   42       14.301125   0.000000
   43       14.469402   0.000000
   44       15.411740   0.000000
   45       17.077063   0.000000
   46       17.127079   0.000000
   47       17.185475   0.000000
   48       17.817493   0.000000
   49       17.887979   0.000000
   50       17.943265   0.000000
   51       18.788858   0.000000
   52       19.059563   0.000000
   53       19.658492   0.000000
   54       20.405778   0.000000
   55       20.729057   0.000000
   56       21.020625   0.000000
   57       21.091737   0.000000
   58       21.092763   0.000000
   59       21.948289   0.000000
   60       21.949892   0.000000
   61       23.469152   0.000000
   62       23.632987   0.000000
   63       23.779800   0.000000
   64       24.311812   0.000000
   65       24.316279   0.000000
   66       24.318607   0.000000
   67       24.766242   0.000000
   68       25.718018   0.000000
   69       26.017513   0.000000
   70       26.151816   0.000000
   71       26.276885   0.000000
   72       26.976354   0.000000
   73       26.976646   0.000000
   74       27.144580   0.000000
   75       27.144813   0.000000
   76       29.519111   0.000000
   77       29.548568   0.000000
   78       29.583210   0.000000
   79       29.982350   0.000000
   80       30.027640   0.000000
   81       30.063856   0.000000
   82       30.295918   0.000000
   83       30.316767   0.000000
   84       30.319192   0.000000
   85       34.272140   0.000000
   86       34.732225   0.000000
   87       34.755934   0.000000
   88       34.764796   0.000000
   89       36.061127   0.000000
   90       36.955763   0.000000
   91       37.423839   0.000000
   92       37.483037   0.000000
   93       37.506082   0.000000
   94       40.879620   0.000000
   95       41.020429   0.000000
   96       41.127074   0.000000
   97       41.208651   0.000000
   98       41.310415   0.000000
   99       41.454711   0.000000
  100       41.529477   0.000000
  101       41.626584   0.000000
  102       41.916580   0.000000
  103       41.974632   0.000000
  104       42.547615   0.000000
  105       42.922686   0.000000
 
  0.1250000E+00  0.0000000E+00  0.0000000E+00  0.1562500E-01
    1      -36.361582   1.000000
    2      -33.195839   1.000000
    3      -17.184581   1.000000
    4      -16.479341   1.000000
    5      -14.143353   1.000000
    6      -12.983672   1.000000
    7      -12.376696   1.000000
    8      -11.897477   1.000000
    9       -8.978061   1.000000
   10       -8.948539   1.000000
   11        0.257534   1.000000
   12        0.384963   1.000000
   13        0.452384   1.000000
   14        0.785235   1.000000
   15        0.982490   1.000000
   16        1.061658   1.000000
   17        1.150053   1.000000
   18        1.268379   1.000000
   19        1.559453   1.000000
   20        1.621805   1.000000
   21        1.862712   1.000000
   22        2.057569   1.000000
   23        2.098042   1.000000
   24        5.623061   0.000000
   25        5.904467   0.000000
   26        5.929411   0.000000
   27        6.158478   0.000000
   28        6.164804   0.000000
   29        6.541374   0.000000
   30        6.571126   0.000000
   31        6.589553   0.000000
   32        7.044287   0.000000
   33        7.051375   0.000000
   34        7.768369   0.000000
   35        7.776757   0.000000
   36       11.863130   0.000000
   37       11.870930   0.000000
   38       13.923808   0.000000
   39       14.060315   0.000000
   40       14.135723   0.000000
   41       14.194397   0.000000
   42       14.274809   0.000000
   43       14.418179   0.000000
   44       15.518756   0.000000
   45       15.606104   0.000000
   46       16.139204   0.000000
   47       16.220841   0.000000
   48       16.687090   0.000000
   49       17.207247   0.000000
   50       17.223016   0.000000
   51       18.691283   0.000000
   52       18.902828   0.000000
   53       19.526966   0.000000
   54       19.807219   0.000000
   55       20.079358   0.000000
   56       20.715737   0.000000
   57       20.845818   0.000000
   58       21.025343   0.000000
   59       22.524606   0.000000
   60       22.723178   0.000000
   61       22.824078   0.000000
   62       23.385315   0.000000
   63       23.432388   0.000000
   64       24.412475   0.000000
   65       24.632712   0.000000
   66       25.047374   0.000000
   67       25.173951   0.000000
   68       25.516086   0.000000
   69       25.603238   0.000000
   70       26.140798   0.000000
   71       27.270228   0.000000
   72       27.321611   0.000000
   73       27.373255   0.000000
   74       28.609451   0.000000
   75       28.613328   0.000000
   76       28.621325   0.000000
   77       29.001446   0.000000
   78       29.013328   0.000000
   79       29.773902   0.000000
   80       29.778021   0.000000
   81       30.393101   0.000000
   82       30.436339   0.000000
   83       32.197539   0.000000
   84       32.212751   0.000000
   85       33.390896   0.000000
   86       33.834744   0.000000
   87       33.861517   0.000000
   88       35.193797   0.000000
   89       35.844626   0.000000
   90       37.135492   0.000000
   91       37.419362   0.000000
   92       37.744013   0.000000
   93       37.759191   0.000000
   94       38.040142   0.000000
   95       38.458402   0.000000
   96       38.529312   0.000000
   97       39.039455   0.000000
   98       39.492563   0.000000
   99       39.948681   0.000000
  100       40.295056   0.000000
  101       40.879748   0.000000
  102       41.380085   0.000000
  103       41.851498   0.000000
  104       42.094798   0.000000
  105       42.331462   0.000000
 
  0.2500000E+00  0.0000000E+00  0.0000000E+00  0.1562500E-01
    1      -36.356758   1.000000
    2      -33.188855   1.000000
    3      -17.219347   1.000000
    4      -16.517504   1.000000
    5      -14.209124   1.000000
    6      -13.078703   1.000000
    7      -12.488131   1.000000
    8      -11.974117   1.000000
    9       -8.678216   1.000000
   10       -8.563208   1.000000
   11       -0.159037   1.000000
   12        0.279686   1.000000
   13        0.392473   1.000000
   14        0.465703   1.000000
   15        0.788150   1.000000
   16        0.927540   1.000000
   17        0.992880   1.000000
   18        1.110269   1.000000
   19        1.138205   1.000000
   20        1.164250   1.000000
   21        1.304051   1.000000
   22        1.534079   1.000000
   23        1.617996   1.000000
   24        5.873992   0.000000
   25        6.380932   0.000000
   26        6.616351   0.000000
   27        6.643930   0.000000
   28        7.306127   0.000000
   29        7.324691   0.000000
   30        7.557778   0.000000
   31        7.918275   0.000000
   32        8.292835   0.000000
   33        8.310240   0.000000
   34        9.011350   0.000000
   35        9.038181   0.000000
   36       12.731087   0.000000
   37       12.897413   0.000000
   38       13.601660   0.000000
   39       13.636983   0.000000
   40       13.763851   0.000000
   41       14.143583   0.000000
   42       14.164651   0.000000
   43       14.223668   0.000000
   44       14.249008   0.000000
   45       14.310748   0.000000
   46       14.456659   0.000000
   47       15.097013   0.000000
   48       15.746766   0.000000
   49       15.830091   0.000000
   50       16.318632   0.000000
   51       17.262917   0.000000
   52       17.370185   0.000000
   53       18.265740   0.000000
   54       18.370709   0.000000
   55       19.889529   0.000000
   56       20.577853   0.000000
   57       21.209590   0.000000
   58       21.239523   0.000000
   59       21.273726   0.000000
   60       22.634939   0.000000
   61       22.957673   0.000000
   62       22.980369   0.000000
   63       23.255507   0.000000
   64       23.302847   0.000000
   65       24.825901   0.000000
   66       25.164940   0.000000
   67       25.272688   0.000000
   68       26.328978   0.000000
   69       26.376302   0.000000
   70       26.934300   0.000000
   71       27.657835   0.000000
   72       27.678386   0.000000
   73       28.578146   0.000000
   74       28.712605   0.000000
   75       29.428414   0.000000
   76       29.804817   0.000000
   77       30.045146   0.000000
   78       30.117557   0.000000
   79       30.306504   0.000000
   80       30.686962   0.000000
   81       30.802183   0.000000
   82       31.161590   0.000000
   83       31.178530   0.000000
   84       32.503309   0.000000
   85       32.509249   0.000000
   86       33.197237   0.000000
   87       33.696332   0.000000
   88       34.704671   0.000000
   89       35.275336   0.000000
   90       35.312170   0.000000
   91       35.700274   0.000000
   92       35.733779   0.000000
   93       37.287072   0.000000
   94       37.970987   0.000000
   95       38.212516   0.000000
   96       38.306854   0.000000
   97       38.826392   0.000000
   98       38.897902   0.000000
   99       39.224457   0.000000
  100       39.604246   0.000000
  101       40.065495   0.000000
  102       40.348930   0.000000
  103       40.630449   0.000000
  104       41.428980   0.000000
  105       42.158411   0.000000
 
  0.3750000E+00  0.0000000E+00  0.0000000E+00  0.1562500E-01
    1      -36.351929   1.000000
    2      -33.181854   1.000000
    3      -17.255049   1.000000
    4      -16.555083   1.000000
    5      -14.270933   1.000000
    6      -13.177726   1.000000
    7      -12.585031   1.000000
    8      -12.020508   1.000000
    9       -8.375860   1.000000
   10       -8.195572   1.000000
   11       -0.709149   1.000000
   12       -0.496764   1.000000
   13        0.455936   1.000000
   14        0.497082   1.000000
   15        0.737765   1.000000
   16        0.760457   1.000000
   17        0.791792   1.000000
   18        0.814816   1.000000
   19        0.915042   1.000000
   20        1.071443   1.000000
   21        1.127494   1.000000
   22        1.162176   1.000000
   23        1.306588   1.000000
   24        6.489851   0.000000
   25        6.955965   0.000000
   26        7.606182   0.000000
   27        7.635078   0.000000
   28        8.322864   0.000000
   29        8.411944   0.000000
   30        8.433285   0.000000
   31        8.780823   0.000000
   32        9.800874   0.000000
   33        9.840205   0.000000
   34       10.526868   0.000000
   35       10.580925   0.000000
   36       12.116560   0.000000
   37       12.225587   0.000000
   38       12.342583   0.000000
   39       12.586615   0.000000
   40       12.609446   0.000000
   41       12.754061   0.000000
   42       13.866123   0.000000
   43       13.956503   0.000000
   44       14.034257   0.000000
   45       14.189800   0.000000
   46       14.580908   0.000000
   47       14.788603   0.000000
   48       14.915048   0.000000
   49       15.483503   0.000000
   50       15.575428   0.000000
   51       16.363886   0.000000
   52       16.937914   0.000000
   53       16.974130   0.000000
   54       17.915490   0.000000
   55       17.921568   0.000000
   56       18.767428   0.000000
   57       21.048813   0.000000
   58       21.992865   0.000000
   59       22.053616   0.000000
   60       22.298161   0.000000
   61       23.097069   0.000000
   62       23.137155   0.000000
   63       23.463843   0.000000
   64       23.538549   0.000000
   65       25.278159   0.000000
   66       25.531727   0.000000
   67       25.569700   0.000000
   68       25.601281   0.000000
   69       25.767555   0.000000
   70       25.828442   0.000000
   71       27.018016   0.000000
   72       27.625967   0.000000
   73       27.666428   0.000000
   74       27.669087   0.000000
   75       28.931576   0.000000
   76       28.984657   0.000000
   77       29.933584   0.000000
   78       30.070282   0.000000
   79       30.988536   0.000000
   80       31.251487   0.000000
   81       31.357554   0.000000
   82       31.465580   0.000000
   83       32.111545   0.000000
   84       32.427209   0.000000
   85       34.409004   0.000000
   86       34.596536   0.000000
   87       34.649344   0.000000
   88       34.954397   0.000000
   89       35.041145   0.000000
   90       35.108067   0.000000
   91       35.797125   0.000000
   92       36.868592   0.000000
   93       36.992808   0.000000
   94       37.610486   0.000000
   95       37.691818   0.000000
   96       38.361623   0.000000
   97       38.457516   0.000000
   98       38.570092   0.000000
   99       38.767023   0.000000
  100       38.883091   0.000000
  101       39.032028   0.000000
  102       39.755082   0.000000
  103       40.418020   0.000000
  104       41.098810   0.000000
  105       41.451308   0.000000
 
  0.5000000E+00  0.0000000E+00  0.0000000E+00  0.7812500E-02
    1      -36.349931   1.000000
    2      -33.178956   1.000000
    3      -17.270330   1.000000
    4      -16.570763   1.000000
    5      -14.295492   1.000000
    6      -13.220039   1.000000
    7      -12.620086   1.000000
    8      -12.035263   1.000000
    9       -8.248551   1.000000
   10       -8.044742   1.000000
   11       -0.943983   1.000000
   12       -0.788060   1.000000
   13        0.522525   1.000000
   14        0.538366   1.000000
   15        0.605326   1.000000
   16        0.624319   1.000000
   17        0.687188   1.000000
   18        0.788918   1.000000
   19        0.862724   1.000000
   20        0.943407   1.000000
   21        1.045124   1.000000
   22        1.160655   1.000000
   23        1.236558   1.000000
   24        7.236671   0.000000
   25        7.574726   0.000000
   26        7.803964   0.000000
   27        8.262384   0.000000
   28        8.296940   0.000000
   29        8.496447   0.000000
   30        9.245113   0.000000
   31        9.299141   0.000000
   32       10.727910   0.000000
   33       10.834777   0.000000
   34       11.043868   0.000000
   35       11.128719   0.000000
   36       11.143483   0.000000
   37       11.173427   0.000000
   38       12.203471   0.000000
   39       12.249181   0.000000
   40       12.582796   0.000000
   41       13.348211   0.000000
   42       13.382871   0.000000
   43       13.457190   0.000000
   44       13.924951   0.000000
   45       14.064880   0.000000
   46       14.279322   0.000000
   47       14.460144   0.000000
   48       14.512181   0.000000
   49       14.606166   0.000000
   50       14.752288   0.000000
   51       16.187913   0.000000
   52       16.377038   0.000000
   53       16.400515   0.000000
   54       17.503572   0.000000
   55       18.691403   0.000000
   56       19.439205   0.000000
   57       20.231143   0.000000
   58       22.226319   0.000000
   59       22.758992   0.000000
   60       22.771151   0.000000
   61       22.887725   0.000000
   62       22.968834   0.000000
   63       23.556558   0.000000
   64       23.677589   0.000000
   65       25.157158   0.000000
   66       25.169329   0.000000
   67       25.364514   0.000000
   68       25.417412   0.000000
   69       25.501407   0.000000
   70       25.865445   0.000000
   71       25.904418   0.000000
   72       26.008310   0.000000
   73       28.208065   0.000000
   74       28.215868   0.000000
   75       28.289302   0.000000
   76       28.296210   0.000000
   77       28.892977   0.000000
   78       29.010396   0.000000
   79       30.544730   0.000000
   80       31.499490   0.000000
   81       31.565155   0.000000
   82       32.830563   0.000000
   83       33.046046   0.000000
   84       33.229699   0.000000
   85       34.622958   0.000000
   86       34.707773   0.000000
   87       35.100566   0.000000
   88       35.457123   0.000000
   89       35.541667   0.000000
   90       36.021056   0.000000
   91       36.199188   0.000000
   92       37.229367   0.000000
   93       37.342019   0.000000
   94       37.394598   0.000000
   95       37.565486   0.000000
   96       37.858444   0.000000
   97       37.883378   0.000000
   98       37.963883   0.000000
   99       38.002727   0.000000
  100       38.371284   0.000000
  101       38.425743   0.000000
  102       41.082113   0.000000
  103       41.139364   0.000000
  104       41.647502   0.000000
  105       42.087755   0.000000
 
  0.1250000E+00  0.1250000E+00  0.0000000E+00  0.3906250E-02
    1      -36.360921   1.000000
    2      -33.194880   1.000000
    3      -17.183544   1.000000
    4      -16.494011   1.000000
    5      -14.132420   1.000000
    6      -12.993152   1.000000
    7      -12.438560   1.000000
    8      -11.873047   1.000000
    9       -8.950238   1.000000
   10       -8.917263   1.000000
   11        0.234863   1.000000
   12        0.324384   1.000000
   13        0.491986   1.000000
   14        0.786021   1.000000
   15        0.939141   1.000000
   16        1.011068   1.000000
   17        1.056010   1.000000
   18        1.150944   1.000000
   19        1.556340   1.000000
   20        1.663721   1.000000
   21        1.764705   1.000000
   22        2.152026   1.000000
   23        2.208154   1.000000
   24        5.253233   0.000000
   25        5.834767   0.000000
   26        5.867808   0.000000
   27        6.238506   0.000000
   28        6.323102   0.000000
   29        6.328090   0.000000
   30        6.663317   0.000000
   31        6.896114   0.000000
   32        6.971518   0.000000
   33        7.432234   0.000000
   34        7.858372   0.000000
   35        8.510647   0.000000
   36       12.023262   0.000000
   37       12.056095   0.000000
   38       13.972335   0.000000
   39       14.014546   0.000000
   40       14.121838   0.000000
   41       14.163351   0.000000
   42       14.188756   0.000000
   43       14.468440   0.000000
   44       15.370558   0.000000
   45       15.560377   0.000000
   46       15.615586   0.000000
   47       16.305692   0.000000
   48       16.671293   0.000000
   49       16.811785   0.000000
   50       17.275095   0.000000
   51       17.574480   0.000000
   52       18.006928   0.000000
   53       19.576039   0.000000
   54       20.321732   0.000000
   55       20.547783   0.000000
   56       20.944164   0.000000
   57       21.353144   0.000000
   58       21.707265   0.000000
   59       21.843455   0.000000
   60       22.145418   0.000000
   61       22.621855   0.000000
   62       23.147633   0.000000
   63       23.393344   0.000000
   64       24.770839   0.000000
   65       25.048975   0.000000
   66       25.242498   0.000000
   67       25.274547   0.000000
   68       25.325339   0.000000
   69       25.379938   0.000000
   70       25.975364   0.000000
   71       26.554348   0.000000
   72       27.284804   0.000000
   73       28.077353   0.000000
   74       28.134042   0.000000
   75       28.285091   0.000000
   76       28.972525   0.000000
   77       29.060049   0.000000
   78       29.630359   0.000000
   79       29.728509   0.000000
   80       29.818566   0.000000
   81       29.824139   0.000000
   82       31.560264   0.000000
   83       31.570739   0.000000
   84       33.031411   0.000000
   85       33.360190   0.000000
   86       34.719898   0.000000
   87       34.818264   0.000000
   88       35.141197   0.000000
   89       36.517688   0.000000
   90       36.545709   0.000000
   91       37.236611   0.000000
   92       38.027617   0.000000
   93       38.141176   0.000000
   94       38.231353   0.000000
   95       38.306228   0.000000
   96       38.405042   0.000000
   97       38.508593   0.000000
   98       38.708069   0.000000
   99       38.855322   0.000000
  100       39.176778   0.000000
  101       39.250752   0.000000
  102       39.849466   0.000000
  103       41.147332   0.000000
  104       41.434294   0.000000
  105       41.792303   0.000000
 
  0.2500000E+00  0.1250000E+00  0.0000000E+00  0.1562500E-01
    1      -36.357054   1.000000
    2      -33.189290   1.000000
    3      -17.207193   1.000000
    4      -16.529442   1.000000
    5      -14.172868   1.000000
    6      -13.058682   1.000000
    7      -12.540867   1.000000
    8      -11.924676   1.000000
    9       -8.746020   1.000000
   10       -8.661266   1.000000
   11       -0.062645   1.000000
   12        0.328330   1.000000
   13        0.344601   1.000000
   14        0.507096   1.000000
   15        0.788467   1.000000
   16        0.976674   1.000000
   17        1.012407   1.000000
   18        1.147783   1.000000
   19        1.212588   1.000000
   20        1.302816   1.000000
   21        1.453379   1.000000
   22        1.748005   1.000000
   23        1.902067   1.000000
   24        5.214705   0.000000
   25        5.745694   0.000000
   26        6.522440   0.000000
   27        6.935806   0.000000
   28        7.024167   0.000000
   29        7.099589   0.000000
   30        7.364251   0.000000
   31        7.656738   0.000000
   32        7.723833   0.000000
   33        8.101617   0.000000
   34        9.210871   0.000000
   35        9.830989   0.000000
   36       12.879168   0.000000
   37       12.990944   0.000000
   38       13.573562   0.000000
   39       13.727382   0.000000
   40       13.830220   0.000000
   41       13.939695   0.000000
   42       14.090660   0.000000
   43       14.107925   0.000000
   44       14.169372   0.000000
   45       14.425449   0.000000
   46       15.051135   0.000000
   47       15.450441   0.000000
   48       15.674226   0.000000
   49       15.893694   0.000000
   50       16.436379   0.000000
   51       16.629420   0.000000
   52       17.643421   0.000000
   53       18.885335   0.000000
   54       19.220523   0.000000
   55       20.134753   0.000000
   56       20.522686   0.000000
   57       20.875006   0.000000
   58       21.113537   0.000000
   59       21.491143   0.000000
   60       22.021326   0.000000
   61       22.255676   0.000000
   62       23.208690   0.000000
   63       23.944994   0.000000
   64       24.078297   0.000000
   65       24.142513   0.000000
   66       25.179714   0.000000
   67       25.370177   0.000000
   68       26.018294   0.000000
   69       26.562084   0.000000
   70       26.736907   0.000000
   71       26.806890   0.000000
   72       27.319115   0.000000
   73       28.097107   0.000000
   74       28.440939   0.000000
   75       28.567208   0.000000
   76       28.917532   0.000000
   77       29.940555   0.000000
   78       30.166314   0.000000
   79       30.622239   0.000000
   80       30.782965   0.000000
   81       31.492517   0.000000
   82       31.991156   0.000000
   83       32.118818   0.000000
   84       33.440388   0.000000
   85       33.574847   0.000000
   86       33.899233   0.000000
   87       34.114177   0.000000
   88       34.930379   0.000000
   89       35.108982   0.000000
   90       35.496635   0.000000
   91       35.819256   0.000000
   92       36.233142   0.000000
   93       36.825366   0.000000
   94       36.950805   0.000000
   95       37.394175   0.000000
   96       37.550803   0.000000
   97       37.755341   0.000000
   98       38.163884   0.000000
   99       38.695834   0.000000
  100       38.895835   0.000000
  101       39.657338   0.000000
  102       40.025771   0.000000
  103       40.390818   0.000000
  104       40.966319   0.000000
  105       41.748090   0.000000
 
  0.3750000E+00  0.1250000E+00  0.0000000E+00  0.1562500E-01
    1      -36.352242   1.000000
    2      -33.182324   1.000000
    3      -17.241924   1.000000
    4      -16.564038   1.000000
    5      -14.237559   1.000000
    6      -13.145880   1.000000
    7      -12.618987   1.000000
    8      -11.993276   1.000000
    9       -8.486451   1.000000
   10       -8.348255   1.000000
   11       -0.462483   1.000000
   12       -0.222698   1.000000
   13        0.389341   1.000000
   14        0.513779   1.000000
   15        0.791017   1.000000
   16        0.824671   1.000000
   17        0.895871   1.000000
   18        0.998149   1.000000
   19        1.017319   1.000000
   20        1.029557   1.000000
   21        1.151075   1.000000
   22        1.228122   1.000000
   23        1.516676   1.000000
   24        5.678388   0.000000
   25        6.184146   0.000000
   26        7.548360   0.000000
   27        7.881573   0.000000
   28        8.061530   0.000000
   29        8.153638   0.000000
   30        8.592912   0.000000
   31        8.667555   0.000000
   32        8.746805   0.000000
   33        9.370483   0.000000
   34       10.172045   0.000000
   35       10.763749   0.000000
   36       11.950990   0.000000
   37       12.467137   0.000000
   38       12.599163   0.000000
   39       12.763916   0.000000
   40       13.502251   0.000000
   41       13.540870   0.000000
   42       13.752197   0.000000
   43       13.859786   0.000000
   44       14.156688   0.000000
   45       14.288988   0.000000
   46       14.455922   0.000000
   47       14.974338   0.000000
   48       15.153696   0.000000
   49       15.215802   0.000000
   50       16.215120   0.000000
   51       16.662936   0.000000
   52       17.200656   0.000000
   53       17.744795   0.000000
   54       18.218095   0.000000
   55       18.718987   0.000000
   56       19.375071   0.000000
   57       19.616564   0.000000
   58       20.641838   0.000000
   59       21.278215   0.000000
   60       21.893396   0.000000
   61       22.725051   0.000000
   62       22.921253   0.000000
   63       23.438623   0.000000
   64       23.776796   0.000000
   65       24.753714   0.000000
   66       24.911298   0.000000
   67       25.427634   0.000000
   68       25.620659   0.000000
   69       26.422254   0.000000
   70       26.661883   0.000000
   71       27.022545   0.000000
   72       27.484679   0.000000
   73       28.465169   0.000000
   74       28.576505   0.000000
   75       29.104861   0.000000
   76       29.827597   0.000000
   77       29.909652   0.000000
   78       30.347239   0.000000
   79       30.643927   0.000000
   80       31.257749   0.000000
   81       32.198741   0.000000
   82       32.406491   0.000000
   83       32.525595   0.000000
   84       32.691054   0.000000
   85       32.987091   0.000000
   86       33.457091   0.000000
   87       33.678990   0.000000
   88       33.824564   0.000000
   89       34.567803   0.000000
   90       35.214973   0.000000
   91       35.739395   0.000000
   92       35.984405   0.000000
   93       36.687115   0.000000
   94       36.713401   0.000000
   95       36.974793   0.000000
   96       36.988945   0.000000
   97       37.144098   0.000000
   98       38.465931   0.000000
   99       39.153851   0.000000
  100       39.335889   0.000000
  101       40.328226   0.000000
  102       40.723927   0.000000
  103       41.046926   0.000000
  104       41.740131   0.000000
  105       42.569657   0.000000
 
  0.5000000E+00  0.1250000E+00  0.0000000E+00  0.1562500E-01
    1      -36.349303   1.000000
    2      -33.178052   1.000000
    3      -17.267122   1.000000
    4      -16.578295   1.000000
    5      -14.287245   1.000000
    6      -13.206430   1.000000
    7      -12.630226   1.000000
    8      -12.046929   1.000000
    9       -8.320221   1.000000
   10       -8.150871   1.000000
   11       -0.735415   1.000000
   12       -0.556634   1.000000
   13        0.469091   1.000000
   14        0.512920   1.000000
   15        0.636623   1.000000
   16        0.726728   1.000000
   17        0.788231   1.000000
   18        0.829788   1.000000
   19        0.868850   1.000000
   20        0.943644   1.000000
   21        1.047168   1.000000
   22        1.162185   1.000000
   23        1.299903   1.000000
   24        6.554451   0.000000
   25        7.052711   0.000000
   26        7.816186   0.000000
   27        8.346855   0.000000
   28        8.420422   0.000000
   29        8.581214   0.000000
   30        9.352213   0.000000
   31        9.424695   0.000000
   32       10.009007   0.000000
   33       10.669143   0.000000
   34       10.793139   0.000000
   35       11.010043   0.000000
   36       11.209326   0.000000
   37       11.665922   0.000000
   38       11.947492   0.000000
   39       11.976415   0.000000
   40       12.670374   0.000000
   41       12.983099   0.000000
   42       13.888387   0.000000
   43       13.977942   0.000000
   44       14.063824   0.000000
   45       14.132906   0.000000
   46       14.365242   0.000000