       N       E                     dE             d eps       ncg     rms          ort
DAV:   1     0.125077373976E+03    0.12508E+03   -0.77307E+03  8190   0.794E+02
DAV:   2     0.112846367718E+02   -0.11379E+03   -0.99022E+02  8190   0.129E+02
DAV:   3    -0.923046637695E+01   -0.20515E+02   -0.19526E+02  8190   0.400E+01
DAV:   4    -0.112456151943E+02   -0.20151E+01   -0.19660E+01  8190   0.125E+01
DAV:   5    -0.114740656297E+02   -0.22845E+00   -0.22770E+00  8190   0.416E+00
SDA:   6    -0.160166000736E+02   -0.45425E+01   -0.53485E+01  8190   0.134E+02 0.000E+00
DMP:   7    -0.182164535601E+02   -0.21999E+01   -0.41396E+00  8190   0.902E+00 0.349E+00
DMP:   8    -0.184424356758E+02   -0.22598E+00   -0.22884E+00  8190   0.502E+00 0.184E+00
DMP:   9    -0.185754090599E+02   -0.13297E+00   -0.47173E-01  8190   0.841E-01 0.886E-01
DMP:  10    -0.185924904645E+02   -0.17081E-01   -0.20902E-01  8190   0.653E-01-0.342E-01
DMP:  11    -0.186087490455E+02   -0.16259E-01   -0.21206E-01  8190   0.419E-01 0.291E-01
DMP:  12    -0.186236576986E+02   -0.14909E-01   -0.64917E-02  8190   0.792E-02 0.218E-01
DMP:  13    -0.186273522768E+02   -0.36946E-02   -0.14674E-02  8190   0.276E-02 0.237E-02
DMP:  14    -0.186284014063E+02   -0.10491E-02   -0.12130E-02  8190   0.241E-02 0.162E-02
DMP:  15    -0.186293738032E+02   -0.97240E-03   -0.69473E-03  8190   0.102E-02 0.188E-02
DMP:  16    -0.186299080185E+02   -0.53422E-03   -0.32173E-03  8190   0.442E-03 0.950E-03
DMP:  17    -0.186301706461E+02   -0.26263E-03   -0.20068E-03  8190   0.298E-03 0.532E-03
DMP:  18    -0.186303440306E+02   -0.17338E-03   -0.14008E-03  8190   0.202E-03 0.389E-03
DMP:  19    -0.186304679850E+02   -0.12395E-03   -0.96904E-04  8190   0.136E-03 0.278E-03
DMP:  20    -0.186305553630E+02   -0.87378E-04   -0.71182E-04  8190   0.101E-03 0.201E-03
   1 F= -.18630555E+02 E0= -.18630555E+02  d E =-.417189E-08  mag=    -0.0000    -0.0000     6.9661
