       N       E                     dE             d eps       ncg     rms          ort
DAV:   1    -0.220847155607E+01   -0.22085E+01   -0.48469E+03   896   0.138E+02
DAV:   2    -0.895156378819E+01   -0.67431E+01   -0.67326E+01   896   0.126E+01
DAV:   3    -0.898213740417E+01   -0.30574E-01   -0.30574E-01   896   0.113E+00
DAV:   4    -0.898231606863E+01   -0.17866E-03   -0.20522E-03   896   0.839E-02
DAV:   5    -0.898231651454E+01   -0.44590E-06   -0.44615E-06   896   0.435E-03
SDA:   6    -0.885356626615E+01    0.12875E+00   -0.12317E-01   896   0.308E-01 0.000E+00
DMP:   7    -0.886435752120E+01   -0.10791E-01   -0.10569E-01   896   0.176E-01 0.232E-01
DMP:   8    -0.887308129094E+01   -0.87238E-02   -0.56712E-02   896   0.765E-02 0.171E-01
DMP:   9    -0.887755743421E+01   -0.44761E-02   -0.24300E-02   896   0.289E-02 0.834E-02
DMP:  10    -0.887943494422E+01   -0.18775E-02   -0.90498E-03   896   0.993E-03 0.332E-02
DMP:  11    -0.888011572151E+01   -0.68078E-03   -0.29582E-03   896   0.301E-03 0.115E-02
DMP:  12    -0.888032867861E+01   -0.21296E-03   -0.79761E-04   896   0.734E-04 0.330E-03
DMP:  13    -0.888038183234E+01   -0.53154E-04   -0.16917E-04   896   0.159E-04 0.690E-04
   1 F= -.88803818E+01 E0= -.88803954E+01  d E =0.407260E-04
