 vasp.5.4.4.18Apr17-6-g9f103f2a35 (build Nov 08 2017 12:56:59) complex          
  
 executed on             LinuxIFC date 2020.02.21  23:10:37
 running on   56 total cores
 distrk:  each k-point on   56 cores,    1 groups
 distr:  one band on NCORES_PER_BAND=   8 cores,    7 groups


--------------------------------------------------------------------------------------------------------


 INCAR:
 POTCAR:    PAW_PBE Eu 23Dec2003                  
 POTCAR:    PAW_PBE S 06Sep2000                   
 POTCAR:    PAW_PBE Eu 23Dec2003                  
   VRHFIN =Eu : [core=Kr4d]                                                     
   LEXCH  = PE                                                                  
   EATOM  =  2619.8085 eV,  192.5505 Ry                                         
                                                                                
   TITEL  = PAW_PBE Eu 23Dec2003                                                
   LULTRA =        F    use ultrasoft PP ?                                      
   IUNSCR =        1    unscreen: 0-lin 1-nonlin 2-no                           
   RPACOR =    2.300    partial core radius                                     
   POMASS =  151.965; ZVAL   =   17.000    mass and valenz                      
   RCORE  =    2.800    outmost cutoff radius                                   
   RWIGS  =    2.800; RWIGS  =    1.482    wigner-seitz radius (au A)           
   ENMAX  =  249.668; ENMIN  =  187.251 eV                                      
   RCLOC  =    2.308    cutoff for local pot                                    
   LCOR   =        T    correct aug charges                                     
   LPAW   =        T    paw PP                                                  
   EAUG   =  549.628                                                            
   DEXC   =    0.000                                                            
   RMAX   =    2.870    core radius for proj-oper                               
   RAUG   =    1.300    factor for augmentation sphere                          
   RDEP   =    2.887    radius for radial grids                                 
   RDEPT  =    2.221    core radius for aug-charge                              
                                                                                
   Atomic configuration                                                         
   14 entries                                                                   
     n  l   j            E        occ.                                          
     1  0  0.50    -48354.7667   2.0000                                         
     2  0  0.50     -7939.6472   2.0000                                         
     2  1  1.50     -7072.6637   6.0000                                         
     3  0  0.50     -1747.1875   2.0000                                         
     3  1  1.50     -1477.5221   6.0000                                         
     3  2  2.50     -1117.4686  10.0000                                         
     4  0  0.50      -346.8682   2.0000                                         
     4  1  1.50      -258.1962   6.0000                                         
     4  2  2.50      -134.7724  10.0000                                         
     5  0  0.50       -44.6510   2.0000                                         
     6  0  0.50        -3.6227   2.0000                                         
     5  1  1.50       -23.7639   6.0000                                         
     5  2  2.50        -1.3130   0.0000                                         
     4  3  2.50        -2.7310   7.0000                                         
   Description                                                                  
     l       E           TYP  RCUT    TYP  RCUT                                 
     0    -44.6510453     23  2.400                                             
     0     -3.6226685     23  2.400                                             
     1    -23.7638687     23  2.400                                             
     1     27.2116520     23  2.400                                             
     2     -1.3129622     23  2.500                                             
     2     13.6058260     23  2.500                                             
     3     -2.7309948     23  2.800                                             
     3     -3.4014565     23  2.800                                             
  local pseudopotential read in
  partial core-charges read in
  partial kinetic energy density read in
  atomic valenz-charges read in
  non local Contribution for L=           0  read in
    real space projection operators read in
  non local Contribution for L=           0  read in
    real space projection operators read in
  non local Contribution for L=           1  read in
    real space projection operators read in
  non local Contribution for L=           1  read in
    real space projection operators read in
  non local Contribution for L=           2  read in
    real space projection operators read in
  non local Contribution for L=           2  read in
    real space projection operators read in
  non local Contribution for L=           3  read in
    real space projection operators read in
  non local Contribution for L=           3  read in
    real space projection operators read in
    PAW grid and wavefunctions read in
 
   number of l-projection  operators is LMAX  =           8
   number of lm-projection operators is LMMAX =          32
 
 POTCAR:    PAW_PBE S 06Sep2000                   
   VRHFIN =S : s2p4                                                             
   LEXCH  = PE                                                                  
   EATOM  =   276.8230 eV,   20.3459 Ry                                         
                                                                                
   TITEL  = PAW_PBE S 06Sep2000                                                 
   LULTRA =        F    use ultrasoft PP ?                                      
   IUNSCR =        1    unscreen: 0-lin 1-nonlin 2-no                           
   RPACOR =    1.500    partial core radius                                     
   POMASS =   32.066; ZVAL   =    6.000    mass and valenz                      
   RCORE  =    1.900    outmost cutoff radius                                   
   RWIGS  =    2.200; RWIGS  =    1.164    wigner-seitz radius (au A)           
   ENMAX  =  258.689; ENMIN  =  194.016 eV                                      
   ICORE  =        2    local potential                                         
   LCOR   =        T    correct aug charges                                     
   LPAW   =        T    paw PP                                                  
   EAUG   =  335.092                                                            
   DEXC   =    0.000                                                            
   RMAX   =    1.942    core radius for proj-oper                               
   RAUG   =    1.300    factor for augmentation sphere                          
   RDEP   =    1.954    radius for radial grids                                 
   RDEPT  =    1.744    core radius for aug-charge                              
                                                                                
   Atomic configuration                                                         
    6 entries                                                                   
     n  l   j            E        occ.                                          
     1  0  0.50     -2405.8406   2.0000                                         
     2  0  0.50      -211.7007   2.0000                                         
     2  1  1.50      -156.4958   6.0000                                         
     3  0  0.50       -17.2562   2.0000                                         
     3  1  0.50        -7.0085   4.0000                                         
     3  2  1.50        -6.8029   0.0000                                         
   Description                                                                  
     l       E           TYP  RCUT    TYP  RCUT                                 
     0    -17.2561641     23  1.900                                             
     0    -15.8743224     23  1.900                                             
     1     -7.0085400     23  1.900                                             
     1     -2.7779785     23  1.900                                             
     2     -6.8029130     23  1.900                                             
  local pseudopotential read in
  partial core-charges read in
  partial kinetic energy density read in
  atomic valenz-charges read in
  non local Contribution for L=           0  read in
    real space projection operators read in
  non local Contribution for L=           0  read in
    real space projection operators read in
  non local Contribution for L=           1  read in
    real space projection operators read in
  non local Contribution for L=           1  read in
    real space projection operators read in
    PAW grid and wavefunctions read in
 
   number of l-projection  operators is LMAX  =           4
   number of lm-projection operators is LMMAX =           8
 
  PAW_PBE Eu 23Dec2003                  :
 energy of atom  1       EATOM=-2619.8085
 kinetic energy error for atom=    0.0155 (will be added to EATOM!!)
  PAW_PBE S 06Sep2000                   :
 energy of atom  2       EATOM= -276.8230
 kinetic energy error for atom=    0.0077 (will be added to EATOM!!)
 
 
 POSCAR: Eu  S                                   
  positions in direct lattice
  No initial velocities read in
 exchange correlation table for  LEXCH =        8
   RHO(1)=    0.500       N(1)  =     2000
   RHO(2)=  100.500       N(2)  =     4000
 


--------------------------------------------------------------------------------------------------------


 ion  position               nearest neighbor table
   1  0.000  0.000  0.000-   2 2.98   2 2.98   2 2.98   2 2.98   2 2.98   2 2.98
   2  0.500  0.500  0.500-   1 2.98   1 2.98   1 2.98   1 2.98   1 2.98   1 2.98
 
  LATTYP: Found a face centered cubic cell.
 ALAT       =     5.9680000000
  
  Lattice vectors:
  
 A1 = (   0.0000000000,   2.9840000000,   2.9840000000)
 A2 = (   2.9840000000,   0.0000000000,   2.9840000000)
 A3 = (   2.9840000000,   2.9840000000,   0.0000000000)


Analysis of symmetry for initial positions (statically):
=====================================================================
 Subroutine PRICEL returns:
 Original cell was already a primitive cell.
 

 Routine SETGRP: Setting up the symmetry group for a 
 face centered cubic supercell.


 Subroutine GETGRP returns: Found 48 space group operations
 (whereof 48 operations were pure point group operations)
 out of a pool of 48 trial point group operations.


The static configuration has the point symmetry O_h .


Analysis of symmetry for dynamics (positions and initial velocities):
=====================================================================
 Subroutine PRICEL returns:
 Original cell was already a primitive cell.
 

 Routine SETGRP: Setting up the symmetry group for a 
 face centered cubic supercell.


 Subroutine GETGRP returns: Found 48 space group operations
 (whereof 48 operations were pure point group operations)
 out of a pool of 48 trial point group operations.


The dynamic configuration has the point symmetry O_h .


Analysis of structural, dynamic, and magnetic symmetry:
=====================================================================
 Subroutine PRICEL returns:
 Original cell was already a primitive cell.
 

 Routine SETGRP: Setting up the symmetry group for a 
 face centered cubic supercell.


 Subroutine GETGRP returns: Found  8 space group operations
 (whereof  8 operations were pure point group operations)
 out of a pool of 48 trial point group operations.


The (compounded) configuration has the point symmetry C_4h.


 Subroutine INISYM returns: Found  8 space group operations
 (whereof  8 operations are pure point group operations),
 and found     1 'primitive' translations

 
 
 KPOINTS: KPOINTS created by Atomic Simulation Env

Automatic generation of k-mesh.
Space group operators:
 irot       det(A)        alpha          n_x          n_y          n_z        tau_x        tau_y        tau_z
    1     1.000000     0.000000     1.000000     0.000000     0.000000     0.000000     0.000000     0.000000
    2    -1.000000     0.000000     1.000000     0.000000     0.000000     0.000000     0.000000     0.000000
    3     1.000000    90.000000     0.000000     0.000000    -1.000000     0.000000     0.000000     0.000000
    4    -1.000000    90.000000     0.000000     0.000000    -1.000000     0.000000     0.000000     0.000000
    5     1.000000   180.000000     0.000000     0.000000     1.000000     0.000000     0.000000     0.000000
    6    -1.000000   180.000000     0.000000     0.000000     1.000000     0.000000     0.000000     0.000000
    7     1.000000    90.000000     0.000000     0.000000     1.000000     0.000000     0.000000     0.000000
    8    -1.000000    90.000000     0.000000     0.000000     1.000000     0.000000     0.000000     0.000000
 
 Subroutine IBZKPT returns following result:
 ===========================================
 
 Found     78 irreducible k-points:
 
 Following reciprocal coordinates:
            Coordinates               Weight
  0.000000  0.000000  0.000000      1.000000
  0.125000  0.000000  0.000000      8.000000
  0.250000  0.000000  0.000000      8.000000
  0.375000  0.000000  0.000000      8.000000
  0.500000  0.000000  0.000000      4.000000
  0.125000  0.125000  0.000000      2.000000
  0.250000  0.125000  0.000000      8.000000
  0.375000  0.125000  0.000000      8.000000
  0.500000  0.125000  0.000000      8.000000
 -0.375000  0.125000  0.000000      8.000000
 -0.250000  0.125000  0.000000      8.000000
 -0.125000  0.125000  0.000000      4.000000
  0.250000  0.250000  0.000000      2.000000
  0.375000  0.250000  0.000000      8.000000
  0.500000  0.250000  0.000000      8.000000
 -0.375000  0.250000  0.000000      8.000000
 -0.250000  0.250000  0.000000      4.000000
  0.375000  0.375000  0.000000      2.000000
  0.500000  0.375000  0.000000      8.000000
 -0.375000  0.375000  0.000000      4.000000
  0.500000  0.500000  0.000000      1.000000
  0.125000  0.000000  0.125000      4.000000
  0.250000  0.000000  0.125000      8.000000
  0.375000  0.000000  0.125000      8.000000
  0.500000  0.000000  0.125000      8.000000
 -0.375000  0.000000  0.125000      8.000000
 -0.250000  0.000000  0.125000      8.000000
 -0.125000  0.000000  0.125000      8.000000
  0.375000  0.125000  0.125000      8.000000
  0.500000  0.125000  0.125000      8.000000
 -0.375000  0.125000  0.125000      8.000000
 -0.250000  0.125000  0.125000      8.000000
 -0.125000  0.125000  0.125000      8.000000
  0.375000  0.250000  0.125000      8.000000
  0.500000  0.250000  0.125000      8.000000
 -0.375000  0.250000  0.125000      8.000000
 -0.250000  0.250000  0.125000      8.000000
 -0.125000  0.250000  0.125000      4.000000
  0.500000  0.375000  0.125000      8.000000
 -0.375000  0.375000  0.125000      8.000000
 -0.250000  0.375000  0.125000      4.000000
  0.250000  0.500000  0.125000      8.000000
 -0.375000  0.500000  0.125000      4.000000
  0.250000 -0.375000  0.125000      8.000000
  0.375000 -0.375000  0.125000      8.000000
  0.250000 -0.250000  0.125000      8.000000
  0.375000 -0.250000  0.125000      4.000000
  0.250000 -0.125000  0.125000      4.000000
  0.250000  0.000000  0.250000      4.000000
  0.375000  0.000000  0.250000      8.000000
  0.500000  0.000000  0.250000      8.000000
 -0.375000  0.000000  0.250000      8.000000
 -0.250000  0.000000  0.250000      8.000000
  0.375000  0.125000  0.250000      8.000000
  0.500000  0.125000  0.250000      8.000000
 -0.375000  0.125000  0.250000      8.000000
 -0.250000  0.125000  0.250000      8.000000
 -0.375000  0.250000  0.250000      8.000000
 -0.250000  0.250000  0.250000      8.000000
 -0.125000  0.250000  0.250000      8.000000
 -0.375000  0.375000  0.250000      8.000000
 -0.250000  0.375000  0.250000      8.000000
 -0.125000  0.375000  0.250000      4.000000
 -0.250000  0.500000  0.250000      4.000000
  0.375000 -0.250000  0.250000      8.000000
  0.375000 -0.125000  0.250000      4.000000
  0.375000  0.000000  0.375000      4.000000
  0.500000  0.000000  0.375000      8.000000
 -0.375000  0.000000  0.375000      8.000000
  0.500000  0.125000  0.375000      8.000000
 -0.375000  0.125000  0.375000      8.000000
 -0.250000  0.125000  0.375000      8.000000
 -0.250000  0.250000  0.375000      8.000000
 -0.125000  0.375000  0.375000      8.000000
 -0.125000  0.500000  0.375000      4.000000
  0.500000  0.000000  0.500000      2.000000
 -0.375000  0.125000  0.500000      4.000000
 -0.250000  0.250000  0.500000      2.000000
 
 Following cartesian coordinates:
            Coordinates               Weight
  0.000000  0.000000  0.000000      1.000000
 -0.020945  0.020945  0.020945      8.000000
 -0.041890  0.041890  0.041890      8.000000
 -0.062835  0.062835  0.062835      8.000000
 -0.083780  0.083780  0.083780      4.000000
  0.000000  0.000000  0.041890      2.000000
 -0.020945  0.020945  0.062835      8.000000
 -0.041890  0.041890  0.083780      8.000000
 -0.062835  0.062835  0.104725      8.000000
  0.083780 -0.083780 -0.041890      8.000000
  0.062835 -0.062835 -0.020945      8.000000
  0.041890 -0.041890  0.000000      4.000000
  0.000000  0.000000  0.083780      2.000000
 -0.020945  0.020945  0.104725      8.000000
 -0.041890  0.041890  0.125670      8.000000
  0.104725 -0.104725 -0.020945      8.000000
  0.083780 -0.083780  0.000000      4.000000
  0.000000  0.000000  0.125670      2.000000
 -0.020945  0.020945  0.146615      8.000000
  0.125670 -0.125670  0.000000      4.000000
  0.000000  0.000000  0.167560      1.000000
  0.000000  0.041890  0.000000      4.000000
 -0.020945  0.062835  0.020945      8.000000
 -0.041890  0.083780  0.041890      8.000000
 -0.062835  0.104725  0.062835      8.000000
  0.083780 -0.041890 -0.083780      8.000000
  0.062835 -0.020945 -0.062835      8.000000
  0.041890  0.000000 -0.041890      8.000000
 -0.020945  0.062835  0.062835      8.000000
 -0.041890  0.083780  0.083780      8.000000
  0.104725 -0.062835 -0.062835      8.000000
  0.083780 -0.041890 -0.041890      8.000000
  0.062835 -0.020945 -0.020945      8.000000
  0.000000  0.041890  0.083780      8.000000
 -0.020945  0.062835  0.104725      8.000000
  0.125670 -0.083780 -0.041890      8.000000
  0.104725 -0.062835 -0.020945      8.000000
  0.083780 -0.041890  0.000000      4.000000
  0.000000  0.041890  0.125670      8.000000
  0.146615 -0.104725 -0.020945      8.000000
  0.125670 -0.083780  0.000000      4.000000
  0.062835 -0.020945  0.104725      8.000000
  0.167560 -0.125670  0.000000      4.000000
 -0.083780  0.125670 -0.041890      8.000000
 -0.104725  0.146615 -0.020945      8.000000
 -0.062835  0.104725 -0.020945      8.000000
 -0.083780  0.125670  0.000000      4.000000
 -0.041890  0.083780  0.000000      4.000000
  0.000000  0.083780  0.000000      4.000000
 -0.020945  0.104725  0.020945      8.000000
 -0.041890  0.125670  0.041890      8.000000
  0.104725 -0.020945 -0.104725      8.000000
  0.083780  0.000000 -0.083780      8.000000
  0.000000  0.083780  0.041890      8.000000
 -0.020945  0.104725  0.062835      8.000000
  0.125670 -0.041890 -0.083780      8.000000
  0.104725 -0.020945 -0.062835      8.000000
  0.146615 -0.062835 -0.062835      8.000000
  0.125670 -0.041890 -0.041890      8.000000
  0.104725 -0.020945 -0.020945      8.000000
  0.167560 -0.083780 -0.041890      8.000000
  0.146615 -0.062835 -0.020945      8.000000
  0.125670 -0.041890  0.000000      4.000000
  0.167560 -0.083780  0.000000      4.000000
 -0.062835  0.146615 -0.020945      8.000000
 -0.041890  0.125670  0.000000      4.000000
  0.000000  0.125670  0.000000      4.000000
 -0.020945  0.146615  0.020945      8.000000
  0.125670  0.000000 -0.125670      8.000000
  0.000000  0.125670  0.041890      8.000000
  0.146615 -0.020945 -0.104725      8.000000
  0.125670  0.000000 -0.083780      8.000000
  0.146615 -0.020945 -0.062835      8.000000
  0.146615 -0.020945 -0.020945      8.000000
  0.167560 -0.041890  0.000000      4.000000
  0.000000  0.167560  0.000000      2.000000
  0.167560  0.000000 -0.125670      4.000000
  0.167560  0.000000 -0.083780      2.000000
 

 ----------------------------------------------------------------------------- 
|                                                                             |
|           W    W    AA    RRRRR   N    N  II  N    N   GGGG   !!!           |
|           W    W   A  A   R    R  NN   N  II  NN   N  G    G  !!!           |
|           W    W  A    A  R    R  N N  N  II  N N  N  G       !!!           |
|           W WW W  AAAAAA  RRRRR   N  N N  II  N  N N  G  GGG   !            |
|           WW  WW  A    A  R   R   N   NN  II  N   NN  G    G                |
|           W    W  A    A  R    R  N    N  II  N    N   GGGG   !!!           |
|                                                                             |
|      The number of bands has been changed from the values supplied          |
|      in the INCAR file. This is a result of running the parallel version.   |
|      The orbitals not found in the WAVECAR file will be initialized with    |
|      random numbers, which is usually adequate. For correlated              |
|      calculations, however, you should redo the groundstate calculation.    |
|      I found NBANDS    =      100  now  NBANDS  =     105                   |
|                                                                             |
 ----------------------------------------------------------------------------- 



--------------------------------------------------------------------------------------------------------




 Dimension of arrays:
   k-points           NKPTS =     78   k-points in BZ     NKDIM =     78   number of bands    NBANDS=    105
   number of dos      NEDOS =    301   number of ions     NIONS =      2
   non local maximal  LDIM  =      8   non local SUM 2l+1 LMDIM =     32
   total plane-waves  NPLWV =   5832
   max r-space proj   IRMAX =      1   max aug-charges    IRDMAX=   6473
   dimension x,y,z NGX =    18 NGY =   18 NGZ =   18
   dimension x,y,z NGXF=    36 NGYF=   36 NGZF=   36
   support grid    NGXF=    36 NGYF=   36 NGZF=   36
   ions per type =               1   1
   NGX,Y,Z   is equivalent  to a cutoff of   7.09,  7.09,  7.09 a.u.
   NGXF,Y,Z  is equivalent  to a cutoff of  14.18, 14.18, 14.18 a.u.

 SYSTEM =  unknown system                          
 POSCAR =  Eu  S                                   

 Startparameter for this run:
   NWRITE =      2    write-flag & timer
   PREC   = normal    normal or accurate (medium, high low for compatibility)
   ISTART =      0    job   : 0-new  1-cont  2-samecut
   ICHARG =      2    charge: 1-file 2-atom 10-const
   ISPIN  =      1    spin polarized calculation?
   LNONCOLLINEAR =      T non collinear calculations
   LSORBIT =      T    spin-orbit coupling
   INIWAV =      1    electr: 0-lowe 1-rand  2-diag
   LASPH  =      T    aspherical Exc in radial PAW
   METAGGA=      F    non-selfconsistent MetaGGA calc.

 Electronic Relaxation 1
   ENCUT  =  300.0 eV  22.05 Ry    4.70 a.u.   5.96  5.96  5.96*2*pi/ulx,y,z
   ENINI  =  300.0     initial cutoff
   ENAUG  =  549.6 eV  augmentation charge cutoff
   NELM   =    500;   NELMIN=  2; NELMDL= -5     # of ELM steps 
   EDIFF  = 0.1E-03   stopping-criterion for ELM
   LREAL  =      F    real-space projection
   NLSPLINE    = F    spline interpolate recip. space projectors
   LCOMPAT=      F    compatible to vasp.4.4
   GGA_COMPAT  = T    GGA compatible to vasp.4.4-vasp.4.6
   LMAXPAW     = -100 max onsite density
   LMAXMIX     =    6 max onsite mixed and CHGCAR
   VOSKOWN=      0    Vosko Wilk Nusair interpolation
   ROPT   =    0.00000   0.00000
 Ionic relaxation
   EDIFFG = 0.1E-02   stopping-criterion for IOM
   NSW    =      0    number of steps for IOM
   NBLOCK =      1;   KBLOCK =      1    inner block; outer block 
   IBRION =     -1    ionic relax: 0-MD 1-quasi-New 2-CG
   NFREE  =      0    steps in history (QN), initial steepest desc. (CG)
   ISIF   =      2    stress and relaxation
   IWAVPR =     10    prediction:  0-non 1-charg 2-wave 3-comb
   ISYM   =      2    0-nonsym 1-usesym 2-fastsym
   LCORR  =      T    Harris-Foulkes like correction to forces

   POTIM  = 0.5000    time-step for ionic-motion
   TEIN   =    0.0    initial temperature
   TEBEG  =    0.0;   TEEND  =   0.0 temperature during run
   SMASS  =  -3.00    Nose mass-parameter (am)
   estimated Nose-frequenzy (Omega)   =  0.10E-29 period in steps =****** mass=  -0.407E-27a.u.
   SCALEE = 1.0000    scale energy and forces
   NPACO  =    256;   APACO  = 16.0  distance and # of slots for P.C.
   PSTRESS=    0.0 pullay stress

  Mass of Ions in am
   POMASS = 151.97 32.07
  Ionic Valenz
   ZVAL   =  17.00  6.00
  Atomic Wigner-Seitz radii
   RWIGS  =  -1.00 -1.00
  virtual crystal weights 
   VCA    =   1.00  1.00
   NELECT =      23.0000    total number of electrons
   NUPDOWN=      -1.0000    fix difference up-down

 DOS related values:
   EMIN   =  10.00;   EMAX   =-10.00  energy-range for DOS
   EFERMI =   0.00
   ISMEAR =     0;   SIGMA  =   0.20  broadening in eV -4-tet -1-fermi 0-gaus

 Electronic relaxation 2 (details)
   IALGO  =     53    algorithm
   LDIAG  =      T    sub-space diagonalisation (order eigenvalues)
   LSUBROT=      F    optimize rotation matrix (better conditioning)
   TURBO    =      0    0=normal 1=particle mesh
   IRESTART =      0    0=no restart 2=restart with 2 vectors
   NREBOOT  =      0    no. of reboots
   NMIN     =      0    reboot dimension
   EREF     =   0.00    reference energy to select bands
   IMIX   =      4    mixing-type and parameters
     AMIX     =   0.40;   BMIX     =  1.00
     AMIX_MAG =   1.60;   BMIX_MAG =  1.00
     AMIN     =   0.10
     WC   =   100.;   INIMIX=   1;  MIXPRE=   1;  MAXMIX= -45

 Intra band minimization:
   WEIMIN = 0.0000     energy-eigenvalue tresh-hold
   EBREAK =  0.24E-06  absolut break condition
   DEPER  =   0.30     relativ break condition  

   TIME   =   0.40     timestep for ELM

  volume/ion in A,a.u.               =      26.57       179.31
  Fermi-wavevector in a.u.,A,eV,Ry     =   1.238346  2.340134 20.864541  1.533500
  Thomas-Fermi vector in A             =   2.372875
 
 Write flags
   LWAVE        =      T    write WAVECAR
   LDOWNSAMPLE  =      F    k-point downsampling of WAVECAR
   LCHARG       =      T    write CHGCAR
   LVTOT        =      F    write LOCPOT, total local potential
   LVHAR        =      F    write LOCPOT, Hartree potential only
   LELF         =      F    write electronic localiz. function (ELF)
   LORBIT       =     11    0 simple, 1 ext, 2 COOP (PROOUT), +10 PAW based schemes


 Dipole corrections
   LMONO  =      F    monopole corrections only (constant potential shift)
   LDIPOL =      F    correct potential (dipole corrections)
   IDIPOL =      0    1-x, 2-y, 3-z, 4-all directions 
   EPSILON=  1.0000000 bulk dielectric constant

 LDA+U is selected, type is set to LDAUTYPE =  2
   angular momentum for each species LDAUL =     3   -1
   U (eV)           for each species LDAUU =   8.5  0.0
   J (eV)           for each species LDAUJ =   0.0  0.0
 Exchange correlation treatment:
   GGA     =    PE    GGA type
   LEXCH   =     8    internal setting for exchange type
   VOSKOWN=      0    Vosko Wilk Nusair interpolation
   LHFCALC =     F    Hartree Fock is set to
   LHFONE  =     F    Hartree Fock one center treatment
   AEXX    =    0.0000 exact exchange contribution

 Linear response parameters
   LEPSILON=     F    determine dielectric tensor
   LRPA    =     F    only Hartree local field effects (RPA)
   LNABLA  =     F    use nabla operator in PAW spheres
   LVEL    =     F    velocity operator in full k-point grid
   LINTERFAST=   F  fast interpolation
   KINTER  =     0    interpolate to denser k-point grid
   CSHIFT  =0.1000    complex shift for real part using Kramers Kronig
   OMEGAMAX=  -1.0    maximum frequency
   DEG_THRESHOLD= 0.2000000E-02 threshold for treating states as degnerate
   RTIME   =   -0.100 relaxation time in fs
  (WPLASMAI=    0.000 imaginary part of plasma frequency in eV, 0.658/RTIME)
   DFIELD  = 0.0000000 0.0000000 0.0000000 field for delta impulse in time
 
 Orbital magnetization related:
   ORBITALMAG=     F  switch on orbital magnetization
   LCHIMAG   =     F  perturbation theory with respect to B field
   DQ        =  0.001000  dq finite difference perturbation B field
   LLRAUG    =     F  two centre corrections for induced B field



--------------------------------------------------------------------------------------------------------


 Static calculation
 charge density and potential will be updated during run
 non collinear spin polarized calculation
 Conjugate gradient for all bands (Freysoldt, et al. PRB 79, 241103 (2009))
 perform sub-space diagonalisation
    before iterative eigenvector-optimisation
 modified Broyden-mixing scheme, WC =      100.0
 initial mixing is a Kerker type mixing with AMIX =  0.4000 and BMIX =      1.0000
 Hartree-type preconditioning will be used
 using additional bands           93
 reciprocal scheme for non local part
 use partial core corrections
 no Harris-corrections to forces 
 use gradient corrections 
 use of overlap-Matrix (Vanderbilt PP)
 Gauss-broadening in eV      SIGMA  =   0.20


--------------------------------------------------------------------------------------------------------


  energy-cutoff  :      300.00
  volume of cell :       53.14
      direct lattice vectors                 reciprocal lattice vectors
     0.000000000  2.984000000  2.984000000    -0.167560322  0.167560322  0.167560322
     2.984000000  0.000000000  2.984000000     0.167560322 -0.167560322  0.167560322
     2.984000000  2.984000000  0.000000000     0.167560322  0.167560322 -0.167560322

  length of vectors
     4.220013270  4.220013270  4.220013270     0.290222991  0.290222991  0.290222991


 
 k-points in units of 2pi/SCALE and weight: KPOINTS created by Atomic Simulation Env
   0.00000000  0.00000000  0.00000000       0.002
  -0.02094504  0.02094504  0.02094504       0.016
  -0.04189008  0.04189008  0.04189008       0.016
  -0.06283512  0.06283512  0.06283512       0.016
  -0.08378016  0.08378016  0.08378016       0.008
   0.00000000  0.00000000  0.04189008       0.004
  -0.02094504  0.02094504  0.06283512       0.016
  -0.04189008  0.04189008  0.08378016       0.016
  -0.06283512  0.06283512  0.10472520       0.016
   0.08378016 -0.08378016 -0.04189008       0.016
   0.06283512 -0.06283512 -0.02094504       0.016
   0.04189008 -0.04189008  0.00000000       0.008
   0.00000000  0.00000000  0.08378016       0.004
  -0.02094504  0.02094504  0.10472520       0.016
  -0.04189008  0.04189008  0.12567024       0.016
   0.10472520 -0.10472520 -0.02094504       0.016
   0.08378016 -0.08378016  0.00000000       0.008
   0.00000000  0.00000000  0.12567024       0.004
  -0.02094504  0.02094504  0.14661528       0.016
   0.12567024 -0.12567024  0.00000000       0.008
   0.00000000  0.00000000  0.16756032       0.002
   0.00000000  0.04189008  0.00000000       0.008
  -0.02094504  0.06283512  0.02094504       0.016
  -0.04189008  0.08378016  0.04189008       0.016
  -0.06283512  0.10472520  0.06283512       0.016
   0.08378016 -0.04189008 -0.08378016       0.016
   0.06283512 -0.02094504 -0.06283512       0.016
   0.04189008  0.00000000 -0.04189008       0.016
  -0.02094504  0.06283512  0.06283512       0.016
  -0.04189008  0.08378016  0.08378016       0.016
   0.10472520 -0.06283512 -0.06283512       0.016
   0.08378016 -0.04189008 -0.04189008       0.016
   0.06283512 -0.02094504 -0.02094504       0.016
   0.00000000  0.04189008  0.08378016       0.016
  -0.02094504  0.06283512  0.10472520       0.016
   0.12567024 -0.08378016 -0.04189008       0.016
   0.10472520 -0.06283512 -0.02094504       0.016
   0.08378016 -0.04189008  0.00000000       0.008
   0.00000000  0.04189008  0.12567024       0.016
   0.14661528 -0.10472520 -0.02094504       0.016
   0.12567024 -0.08378016  0.00000000       0.008
   0.06283512 -0.02094504  0.10472520       0.016
   0.16756032 -0.12567024  0.00000000       0.008
  -0.08378016  0.12567024 -0.04189008       0.016
  -0.10472520  0.14661528 -0.02094504       0.016
  -0.06283512  0.10472520 -0.02094504       0.016
  -0.08378016  0.12567024  0.00000000       0.008
  -0.04189008  0.08378016  0.00000000       0.008
   0.00000000  0.08378016  0.00000000       0.008
  -0.02094504  0.10472520  0.02094504       0.016
  -0.04189008  0.12567024  0.04189008       0.016
   0.10472520 -0.02094504 -0.10472520       0.016
   0.08378016  0.00000000 -0.08378016       0.016
   0.00000000  0.08378016  0.04189008       0.016
  -0.02094504  0.10472520  0.06283512       0.016
   0.12567024 -0.04189008 -0.08378016       0.016
   0.10472520 -0.02094504 -0.06283512       0.016
   0.14661528 -0.06283512 -0.06283512       0.016
   0.12567024 -0.04189008 -0.04189008       0.016
   0.10472520 -0.02094504 -0.02094504       0.016
   0.16756032 -0.08378016 -0.04189008       0.016
   0.14661528 -0.06283512 -0.02094504       0.016
   0.12567024 -0.04189008  0.00000000       0.008
   0.16756032 -0.08378016  0.00000000       0.008
  -0.06283512  0.14661528 -0.02094504       0.016
  -0.04189008  0.12567024  0.00000000       0.008
   0.00000000  0.12567024  0.00000000       0.008
  -0.02094504  0.14661528  0.02094504       0.016
   0.12567024  0.00000000 -0.12567024       0.016
   0.00000000  0.12567024  0.04189008       0.016
   0.14661528 -0.02094504 -0.10472520       0.016
   0.12567024  0.00000000 -0.08378016       0.016
   0.14661528 -0.02094504 -0.06283512       0.016
   0.14661528 -0.02094504 -0.02094504       0.016
   0.16756032 -0.04189008  0.00000000       0.008
   0.00000000  0.16756032  0.00000000       0.004
   0.16756032  0.00000000 -0.12567024       0.008
   0.16756032  0.00000000 -0.08378016       0.004
 
 k-points in reciprocal lattice and weights: KPOINTS created by Atomic Simulation Env
   0.00000000  0.00000000  0.00000000       0.002
   0.12500000  0.00000000  0.00000000       0.016
   0.25000000  0.00000000  0.00000000       0.016
   0.37500000  0.00000000  0.00000000       0.016
   0.50000000  0.00000000  0.00000000       0.008
   0.12500000  0.12500000  0.00000000       0.004
   0.25000000  0.12500000  0.00000000       0.016
   0.37500000  0.12500000  0.00000000       0.016
   0.50000000  0.12500000  0.00000000       0.016
  -0.37500000  0.12500000  0.00000000       0.016
  -0.25000000  0.12500000  0.00000000       0.016
  -0.12500000  0.12500000  0.00000000       0.008
   0.25000000  0.25000000  0.00000000       0.004
   0.37500000  0.25000000  0.00000000       0.016
   0.50000000  0.25000000  0.00000000       0.016
  -0.37500000  0.25000000  0.00000000       0.016
  -0.25000000  0.25000000  0.00000000       0.008
   0.37500000  0.37500000  0.00000000       0.004
   0.50000000  0.37500000  0.00000000       0.016
  -0.37500000  0.37500000  0.00000000       0.008
   0.50000000  0.50000000  0.00000000       0.002
   0.12500000  0.00000000  0.12500000       0.008
   0.25000000  0.00000000  0.12500000       0.016
   0.37500000  0.00000000  0.12500000       0.016
   0.50000000  0.00000000  0.12500000       0.016
  -0.37500000  0.00000000  0.12500000       0.016
  -0.25000000  0.00000000  0.12500000       0.016
  -0.12500000  0.00000000  0.12500000       0.016
   0.37500000  0.12500000  0.12500000       0.016
   0.50000000  0.12500000  0.12500000       0.016
  -0.37500000  0.12500000  0.12500000       0.016
  -0.25000000  0.12500000  0.12500000       0.016
  -0.12500000  0.12500000  0.12500000       0.016
   0.37500000  0.25000000  0.12500000       0.016
   0.50000000  0.25000000  0.12500000       0.016
  -0.37500000  0.25000000  0.12500000       0.016
  -0.25000000  0.25000000  0.12500000       0.016
  -0.12500000  0.25000000  0.12500000       0.008
   0.50000000  0.37500000  0.12500000       0.016
  -0.37500000  0.37500000  0.12500000       0.016
  -0.25000000  0.37500000  0.12500000       0.008
   0.25000000  0.50000000  0.12500000       0.016
  -0.37500000  0.50000000  0.12500000       0.008
   0.25000000 -0.37500000  0.12500000       0.016
   0.37500000 -0.37500000  0.12500000       0.016
   0.25000000 -0.25000000  0.12500000       0.016
   0.37500000 -0.25000000  0.12500000       0.008
   0.25000000 -0.12500000  0.12500000       0.008
   0.25000000  0.00000000  0.25000000       0.008
   0.37500000  0.00000000  0.25000000       0.016
   0.50000000  0.00000000  0.25000000       0.016
  -0.37500000  0.00000000  0.25000000       0.016
  -0.25000000  0.00000000  0.25000000       0.016
   0.37500000  0.12500000  0.25000000       0.016
   0.50000000  0.12500000  0.25000000       0.016
  -0.37500000  0.12500000  0.25000000       0.016
  -0.25000000  0.12500000  0.25000000       0.016
  -0.37500000  0.25000000  0.25000000       0.016
  -0.25000000  0.25000000  0.25000000       0.016
  -0.12500000  0.25000000  0.25000000       0.016
  -0.37500000  0.37500000  0.25000000       0.016
  -0.25000000  0.37500000  0.25000000       0.016
  -0.12500000  0.37500000  0.25000000       0.008
  -0.25000000  0.50000000  0.25000000       0.008
   0.37500000 -0.25000000  0.25000000       0.016
   0.37500000 -0.12500000  0.25000000       0.008
   0.37500000  0.00000000  0.37500000       0.008
   0.50000000  0.00000000  0.37500000       0.016
  -0.37500000  0.00000000  0.37500000       0.016
   0.50000000  0.12500000  0.37500000       0.016
  -0.37500000  0.12500000  0.37500000       0.016
  -0.25000000  0.12500000  0.37500000       0.016
  -0.25000000  0.25000000  0.37500000       0.016
  -0.12500000  0.37500000  0.37500000       0.016
  -0.12500000  0.50000000  0.37500000       0.008
   0.50000000  0.00000000  0.50000000       0.004
  -0.37500000  0.12500000  0.50000000       0.008
  -0.25000000  0.25000000  0.50000000       0.004
 
 position of ions in fractional coordinates (direct lattice) 
   0.00000000  0.00000000  0.00000000
   0.50000000  0.50000000  0.50000000
 
 position of ions in cartesian coordinates  (Angst):
   0.00000000  0.00000000  0.00000000
   2.98400000  2.98400000  2.98400000
 
 Euler angles ALPHA=     0.0000000  BETA=     0.0000000

 transformation matrix from SAXIS to cartesian coordinates
 ---------------------------------------------------------
     1.0000000 m_x     0.0000000 m_y     0.0000000 m_z
     0.0000000 m_x     1.0000000 m_y     0.0000000 m_z
     0.0000000 m_x     0.0000000 m_y     1.0000000 m_z

 transformation matrix from cartesian coordinates to SAXIS
 ---------------------------------------------------------
     1.0000000 m_x     0.0000000 m_y     0.0000000 m_z
     0.0000000 m_x     1.0000000 m_y     0.0000000 m_z
     0.0000000 m_x     0.0000000 m_y     1.0000000 m_z




--------------------------------------------------------------------------------------------------------


 k-point  1 :   0.0000 0.0000 0.0000  plane waves:    1218
 k-point  2 :   0.1250 0.0000 0.0000  plane waves:    1236
 k-point  3 :   0.2500 0.0000 0.0000  plane waves:    1232
 k-point  4 :   0.3750 0.0000 0.0000  plane waves:    1226
 k-point  5 :   0.5000 0.0000 0.0000  plane waves:    1256
 k-point  6 :   0.1250 0.1250 0.0000  plane waves:    1218
 k-point  7 :   0.2500 0.1250 0.0000  plane waves:    1238
 k-point  8 :   0.3750 0.1250 0.0000  plane waves:    1240
 k-point  9 :   0.5000 0.1250 0.0000  plane waves:    1248
 k-point 10 :  -0.3750 0.1250 0.0000  plane waves:    1242
 k-point 11 :  -0.2500 0.1250 0.0000  plane waves:    1244
 k-point 12 :  -0.1250 0.1250 0.0000  plane waves:    1228
 k-point 13 :   0.2500 0.2500 0.0000  plane waves:    1264
 k-point 14 :   0.3750 0.2500 0.0000  plane waves:    1250
 k-point 15 :   0.5000 0.2500 0.0000  plane waves:    1252
 k-point 16 :  -0.3750 0.2500 0.0000  plane waves:    1260
 k-point 17 :  -0.2500 0.2500 0.0000  plane waves:    1248
 k-point 18 :   0.3750 0.3750 0.0000  plane waves:    1256
 k-point 19 :   0.5000 0.3750 0.0000  plane waves:    1256
 k-point 20 :  -0.3750 0.3750 0.0000  plane waves:    1252
 k-point 21 :   0.5000 0.5000 0.0000  plane waves:    1272
 k-point 22 :   0.1250 0.0000 0.1250  plane waves:    1218
 k-point 23 :   0.2500 0.0000 0.1250  plane waves:    1238
 k-point 24 :   0.3750 0.0000 0.1250  plane waves:    1240
 k-point 25 :   0.5000 0.0000 0.1250  plane waves:    1248
 k-point 26 :  -0.3750 0.0000 0.1250  plane waves:    1242
 k-point 27 :  -0.2500 0.0000 0.1250  plane waves:    1244
 k-point 28 :  -0.1250 0.0000 0.1250  plane waves:    1228
 k-point 29 :   0.3750 0.1250 0.1250  plane waves:    1244
 k-point 30 :   0.5000 0.1250 0.1250  plane waves:    1242
 k-point 31 :  -0.3750 0.1250 0.1250  plane waves:    1248
 k-point 32 :  -0.2500 0.1250 0.1250  plane waves:    1240
 k-point 33 :  -0.1250 0.1250 0.1250  plane waves:    1238
 k-point 34 :   0.3750 0.2500 0.1250  plane waves:    1248
 k-point 35 :   0.5000 0.2500 0.1250  plane waves:    1254
 k-point 36 :  -0.3750 0.2500 0.1250  plane waves:    1276
 k-point 37 :  -0.2500 0.2500 0.1250  plane waves:    1254
 k-point 38 :  -0.1250 0.2500 0.1250  plane waves:    1248
 k-point 39 :   0.5000 0.3750 0.1250  plane waves:    1272
 k-point 40 :  -0.3750 0.3750 0.1250  plane waves:    1270
 k-point 41 :  -0.2500 0.3750 0.1250  plane waves:    1274
 k-point 42 :   0.2500 0.5000 0.1250  plane waves:    1254
 k-point 43 :  -0.3750 0.5000 0.1250  plane waves:    1264
 k-point 44 :   0.2500-0.3750 0.1250  plane waves:    1276
 k-point 45 :   0.3750-0.3750 0.1250  plane waves:    1270
 k-point 46 :   0.2500-0.2500 0.1250  plane waves:    1254
 k-point 47 :   0.3750-0.2500 0.1250  plane waves:    1274
 k-point 48 :   0.2500-0.1250 0.1250  plane waves:    1248
 k-point 49 :   0.2500 0.0000 0.2500  plane waves:    1264
 k-point 50 :   0.3750 0.0000 0.2500  plane waves:    1250
 k-point 51 :   0.5000 0.0000 0.2500  plane waves:    1252
 k-point 52 :  -0.3750 0.0000 0.2500  plane waves:    1260
 k-point 53 :  -0.2500 0.0000 0.2500  plane waves:    1248
 k-point 54 :   0.3750 0.1250 0.2500  plane waves:    1248
 k-point 55 :   0.5000 0.1250 0.2500  plane waves:    1254
 k-point 56 :  -0.3750 0.1250 0.2500  plane waves:    1276
 k-point 57 :  -0.2500 0.1250 0.2500  plane waves:    1254
 k-point 58 :  -0.3750 0.2500 0.2500  plane waves:    1260
 k-point 59 :  -0.2500 0.2500 0.2500  plane waves:    1252
 k-point 60 :  -0.1250 0.2500 0.2500  plane waves:    1250
 k-point 61 :  -0.3750 0.3750 0.2500  plane waves:    1274
 k-point 62 :  -0.2500 0.3750 0.2500  plane waves:    1270
 k-point 63 :  -0.1250 0.3750 0.2500  plane waves:    1272
 k-point 64 :  -0.2500 0.5000 0.2500  plane waves:    1232
 k-point 65 :   0.3750-0.2500 0.2500  plane waves:    1270
 k-point 66 :   0.3750-0.1250 0.2500  plane waves:    1272
 k-point 67 :   0.3750 0.0000 0.3750  plane waves:    1256
 k-point 68 :   0.5000 0.0000 0.3750  plane waves:    1256
 k-point 69 :  -0.3750 0.0000 0.3750  plane waves:    1252
 k-point 70 :   0.5000 0.1250 0.3750  plane waves:    1272
 k-point 71 :  -0.3750 0.1250 0.3750  plane waves:    1270
 k-point 72 :  -0.2500 0.1250 0.3750  plane waves:    1274
 k-point 73 :  -0.2500 0.2500 0.3750  plane waves:    1270
 k-point 74 :  -0.1250 0.3750 0.3750  plane waves:    1256
 k-point 75 :  -0.1250 0.5000 0.3750  plane waves:    1264
 k-point 76 :   0.5000 0.0000 0.5000  plane waves:    1272
 k-point 77 :  -0.3750 0.1250 0.5000  plane waves:    1264
 k-point 78 :  -0.2500 0.2500 0.5000  plane waves:    1232

 maximum and minimum number of plane-waves per node :       182      138

 maximum number of plane-waves:      1276
 maximum index in each direction: 
   IXMAX=    6   IYMAX=    6   IZMAX=    5
   IXMIN=   -6   IYMIN=   -6   IZMIN=   -6


 parallel 3D FFT for wavefunctions:
    minimum data exchange during FFTs selected (reduces bandwidth)
 parallel 3D FFT for charge:
    minimum data exchange during FFTs selected (reduces bandwidth)


 total amount of memory used by VASP MPI-rank0    48541. kBytes
=======================================================================

   base      :      30000. kBytes
   nonl-proj :       3637. kBytes
   fftplans  :        122. kBytes
   grid      :        435. kBytes
   one-center:        196. kBytes
   wavefun   :      14151. kBytes
 
     INWAV:  cpu time    0.0000: real time    0.0000
 Broyden mixing: mesh for mixing (old mesh)
   NGX = 11   NGY = 11   NGZ = 11
  (NGX  = 36   NGY  = 36   NGZ  = 36)
  gives a total of   1331 points

 initial charge density was supplied:
 charge density of overlapping atoms calculated
 number of electron      23.0000000 magnetization       0.0000000      0.0000000      7.0000000
 keeping initial charge density in first step


--------------------------------------------------------------------------------------------------------


 Maximum index for augmentation-charges          367 (set IRDMAX)


--------------------------------------------------------------------------------------------------------


 First call to EWALD:  gamma=   0.471
 Maximum number of real-space cells 3x 3x 3
 Maximum number of reciprocal cells 3x 3x 3

    FEWALD:  cpu time    0.0022: real time    0.0034


--------------------------------------- Iteration      1(   1)  ---------------------------------------


    POTLOK:  cpu time    0.0088: real time    0.0099
    SETDIJ:  cpu time    1.7909: real time    1.7916
    TRIAL :  cpu time    5.7311: real time    5.7459
    CORREC:  cpu time    0.0041: real time    0.0041
    --------------------------------------------
      LOOP:  cpu time    7.5610: real time    7.5801

 eigenvalue-minimisations  : 31815
 total energy-change (2. order) : 0.1250774E+03  (-0.7730672E+03)
 number of electron      23.0000000 magnetization       0.0000000      0.0000000      7.0000000
 augmentation part       23.0000000 magnetization       0.0000000      0.0000000      7.0000000

 Free energy of the ion-electron system (eV)
  ---------------------------------------------------
  alpha Z        PSCENC =       140.64914730
  Ewald energy   TEWEN  =     -2065.85032796
  -Hartree energ DENC   =      -807.44151542
  -exchange      EXHF   =         0.00000000
  -V(xc)+E(xc)   XCENC  =        97.53328935
  PAW double counting   =      2432.20598244    -2556.01304517
  entropy T*S    EENTRO =        -0.03139488
  eigenvalues    EBANDS =       -12.58308450
  atomic energy  EATOM  =      2896.60832281
  ---------------------------------------------------
  free energy    TOTEN  =       125.07737398 eV

  energy without entropy =      125.10876886  energy(sigma->0) =      125.09307142


--------------------------------------------------------------------------------------------------------




--------------------------------------- Iteration      1(   2)  ---------------------------------------


    TRIAL :  cpu time    4.4931: real time    4.5064
    CORREC:  cpu time    0.0044: real time    0.0044
    --------------------------------------------
      LOOP:  cpu time    4.5002: real time    4.5141

 eigenvalue-minimisations  : 25753
 total energy-change (2. order) :-0.1137927E+03  (-0.9902178E+02)
 number of electron      23.0000000 magnetization       0.0000000      0.0000000      7.0000000
 augmentation part       23.0000000 magnetization       0.0000000      0.0000000      7.0000000

 Free energy of the ion-electron system (eV)
  ---------------------------------------------------
  alpha Z        PSCENC =       140.64914730
  Ewald energy   TEWEN  =     -2065.85032796
  -Hartree energ DENC   =      -807.44151542
  -exchange      EXHF   =         0.00000000
  -V(xc)+E(xc)   XCENC  =        97.53328935
  PAW double counting   =      2432.20598244    -2556.01304517
  entropy T*S    EENTRO =        -0.06123860
  eigenvalues    EBANDS =      -126.34597798
  atomic energy  EATOM  =      2896.60832281
  ---------------------------------------------------
  free energy    TOTEN  =        11.28463677 eV

  energy without entropy =       11.34587537  energy(sigma->0) =       11.31525607


--------------------------------------------------------------------------------------------------------




--------------------------------------- Iteration      1(   3)  ---------------------------------------


    TRIAL :  cpu time    4.6637: real time    4.6765
    CORREC:  cpu time    0.0041: real time    0.0041
    --------------------------------------------
      LOOP:  cpu time    4.6699: real time    4.6827

 eigenvalue-minimisations  : 26621
 total energy-change (2. order) :-0.2051510E+02  (-0.1952635E+02)
 number of electron      23.0000000 magnetization       0.0000000      0.0000000      7.0000000
 augmentation part       23.0000000 magnetization       0.0000000      0.0000000      7.0000000

 Free energy of the ion-electron system (eV)
  ---------------------------------------------------
  alpha Z        PSCENC =       140.64914730
  Ewald energy   TEWEN  =     -2065.85032796
  -Hartree energ DENC   =      -807.44151542
  -exchange      EXHF   =         0.00000000
  -V(xc)+E(xc)   XCENC  =        97.53328935
  PAW double counting   =      2432.20598244    -2556.01304517
  entropy T*S    EENTRO =        -0.03736383
  eigenvalues    EBANDS =      -146.88495590
  atomic energy  EATOM  =      2896.60832281
  ---------------------------------------------------
  free energy    TOTEN  =        -9.23046638 eV

  energy without entropy =       -9.19310255  energy(sigma->0) =       -9.21178446


--------------------------------------------------------------------------------------------------------




--------------------------------------- Iteration      1(   4)  ---------------------------------------


    TRIAL :  cpu time    4.8344: real time    4.8473
    CORREC:  cpu time    0.0040: real time    0.0040
    --------------------------------------------
      LOOP:  cpu time    4.8386: real time    4.8514

 eigenvalue-minimisations  : 27398
 total energy-change (2. order) :-0.2015149E+01  (-0.1966029E+01)
 number of electron      23.0000000 magnetization       0.0000000      0.0000000      7.0000000
 augmentation part       23.0000000 magnetization       0.0000000      0.0000000      7.0000000

 Free energy of the ion-electron system (eV)
  ---------------------------------------------------
  alpha Z        PSCENC =       140.64914730
  Ewald energy   TEWEN  =     -2065.85032796
  -Hartree energ DENC   =      -807.44151542
  -exchange      EXHF   =         0.00000000
  -V(xc)+E(xc)   XCENC  =        97.53328935
  PAW double counting   =      2432.20598244    -2556.01304517
  entropy T*S    EENTRO =        -0.03230815
  eigenvalues    EBANDS =      -148.90516039
  atomic energy  EATOM  =      2896.60832281
  ---------------------------------------------------
  free energy    TOTEN  =       -11.24561519 eV

  energy without entropy =      -11.21330704  energy(sigma->0) =      -11.22946112


--------------------------------------------------------------------------------------------------------




--------------------------------------- Iteration      1(   5)  ---------------------------------------


    TRIAL :  cpu time    5.2304: real time    5.2434
    CORREC:  cpu time    0.0045: real time    0.0045
    CHARGE:  cpu time    0.0488: real time    0.0491
    --------------------------------------------
      LOOP:  cpu time    5.2851: real time    5.2994

 eigenvalue-minimisations  : 29918
 total energy-change (2. order) :-0.2284504E+00  (-0.2277039E+00)
 number of electron      23.0000052 magnetization       0.0000000      0.0000000      6.9803152
 augmentation part        4.2405144 magnetization       0.0000000      0.0000000      5.9967994

 Free energy of the ion-electron system (eV)
  ---------------------------------------------------
  alpha Z        PSCENC =       140.64914730
  Ewald energy   TEWEN  =     -2065.85032796
  -Hartree energ DENC   =      -807.44151542
  -exchange      EXHF   =         0.00000000
  -V(xc)+E(xc)   XCENC  =        97.53328935
  PAW double counting   =      2432.20598244    -2556.01304517
  entropy T*S    EENTRO =        -0.03137232
  eigenvalues    EBANDS =      -149.13454667
  atomic energy  EATOM  =      2896.60832281
  ---------------------------------------------------
  free energy    TOTEN  =       -11.47406563 eV

  energy without entropy =      -11.44269331  energy(sigma->0) =      -11.45837947


--------------------------------------------------------------------------------------------------------




--------------------------------------- Iteration      1(   6)  ---------------------------------------


    POTLOK:  cpu time    0.0068: real time    0.0068
    SETDIJ:  cpu time    1.7972: real time    1.7977
    TRIAL :  cpu time    2.1890: real time    2.2036
    CORREC:  cpu time    0.0039: real time    0.0039
    CHARGE:  cpu time    0.0480: real time    0.0480
    --------------------------------------------
      LOOP:  cpu time    4.0451: real time    4.0603

 eigenvalue-minimisations  :     0
 total energy-change (2. order) :-0.4542534E+01  (-0.5348465E+01)
 number of electron      23.0000056 magnetization      -0.0000000     -0.0000000      6.9789809
 augmentation part        4.5629654 magnetization      -0.0000000      0.0000000      6.3020452

 Free energy of the ion-electron system (eV)
  ---------------------------------------------------
  alpha Z        PSCENC =       140.64914730
  Ewald energy   TEWEN  =     -2065.85032796
  -Hartree energ DENC   =      -756.89436897
  -exchange      EXHF   =         0.00000000
  -V(xc)+E(xc)   XCENC  =        98.54517826
  PAW double counting   =      2536.48216597    -2648.24751407
  entropy T*S    EENTRO =        -0.00251453
  eigenvalues    EBANDS =      -217.27783110
  atomic energy  EATOM  =      2896.60832281
  ---------------------------------------------------
  free energy    TOTEN  =       -16.01660007 eV

  energy without entropy =      -16.01408555  energy(sigma->0) =      -16.01534281


--------------------------------------------------------------------------------------------------------




--------------------------------------- Iteration      1(   7)  ---------------------------------------


    POTLOK:  cpu time    0.0067: real time    0.0067
    SETDIJ:  cpu time    1.7936: real time    1.7942
    TRIAL :  cpu time    2.1852: real time    2.1990
    CORREC:  cpu time    0.0039: real time    0.0039
    CHARGE:  cpu time    0.0482: real time    0.0482
    --------------------------------------------
      LOOP:  cpu time    4.0379: real time    4.0526

 eigenvalue-minimisations  :     0
 total energy-change (2. order) :-0.2199853E+01  (-0.4139585E+00)
 number of electron      23.0000057 magnetization      -0.0000000     -0.0000000      6.9770623
 augmentation part        4.6120516 magnetization       0.0000000     -0.0000000      6.3323770

 Free energy of the ion-electron system (eV)
  ---------------------------------------------------
  alpha Z        PSCENC =       140.64914730
  Ewald energy   TEWEN  =     -2065.85032796
  -Hartree energ DENC   =      -807.76461656
  -exchange      EXHF   =         0.00000000
  -V(xc)+E(xc)   XCENC  =       100.64787111
  PAW double counting   =      2686.33313480    -2812.54295685
  entropy T*S    EENTRO =        -0.00007000
  eigenvalues    EBANDS =      -156.29451368
  atomic energy  EATOM  =      2896.60832281
  ---------------------------------------------------
  free energy    TOTEN  =       -18.21645356 eV

  energy without entropy =      -18.21638356  energy(sigma->0) =      -18.21641856


--------------------------------------------------------------------------------------------------------




--------------------------------------- Iteration      1(   8)  ---------------------------------------


    POTLOK:  cpu time    0.0067: real time    0.0067
    SETDIJ:  cpu time    1.7914: real time    1.7920
    TRIAL :  cpu time    2.1756: real time    2.1888
    CORREC:  cpu time    0.0038: real time    0.0038
    CHARGE:  cpu time    0.0480: real time    0.0480
    --------------------------------------------
      LOOP:  cpu time    4.0264: real time    4.0486

 eigenvalue-minimisations  :     0
 total energy-change (2. order) :-0.2259821E+00  (-0.2288410E+00)
 number of electron      23.0000057 magnetization       0.0000000     -0.0000000      6.9754251
 augmentation part        4.6006613 magnetization       0.0000000     -0.0000000      6.3055381

 Free energy of the ion-electron system (eV)
  ---------------------------------------------------
  alpha Z        PSCENC =       140.64914730
  Ewald energy   TEWEN  =     -2065.85032796
  -Hartree energ DENC   =      -814.10368504
  -exchange      EXHF   =         0.00000000
  -V(xc)+E(xc)   XCENC  =       100.80433313
  PAW double counting   =      2762.15519945    -2889.63661654
  entropy T*S    EENTRO =        -0.00001645
  eigenvalues    EBANDS =      -149.06873883
  atomic energy  EATOM  =      2896.60832281
  ---------------------------------------------------
  free energy    TOTEN  =       -18.44243568 eV

  energy without entropy =      -18.44241923  energy(sigma->0) =      -18.44242745


--------------------------------------------------------------------------------------------------------




--------------------------------------- Iteration      1(   9)  ---------------------------------------


    POTLOK:  cpu time    0.0066: real time    0.0066
    SETDIJ:  cpu time    1.7907: real time    1.7913
    TRIAL :  cpu time    2.1734: real time    2.1865
    CORREC:  cpu time    0.0034: real time    0.0034
    CHARGE:  cpu time    0.0480: real time    0.0480
    --------------------------------------------
      LOOP:  cpu time    4.0225: real time    4.0361

 eigenvalue-minimisations  :     0
 total energy-change (2. order) :-0.1329734E+00  (-0.4717290E-01)
 number of electron      23.0000057 magnetization       0.0000000     -0.0000000      6.9740039
 augmentation part        4.5903253 magnetization       0.0000000     -0.0000000      6.2806370

 Free energy of the ion-electron system (eV)
  ---------------------------------------------------
  alpha Z        PSCENC =       140.64914730
  Ewald energy   TEWEN  =     -2065.85032796
  -Hartree energ DENC   =      -808.63563752
  -exchange      EXHF   =         0.00000000
  -V(xc)+E(xc)   XCENC  =       100.53048913
  PAW double counting   =      2774.20207780    -2899.48410987
  entropy T*S    EENTRO =        -0.00000513
  eigenvalues    EBANDS =      -156.59535429
  atomic energy  EATOM  =      2896.60832281
  ---------------------------------------------------
  free energy    TOTEN  =       -18.57540906 eV

  energy without entropy =      -18.57540393  energy(sigma->0) =      -18.57540650


--------------------------------------------------------------------------------------------------------




--------------------------------------- Iteration      1(  10)  ---------------------------------------


    POTLOK:  cpu time    0.0066: real time    0.0066
    SETDIJ:  cpu time    1.7909: real time    1.7914
    TRIAL :  cpu time    2.1758: real time    2.1888
    CORREC:  cpu time    0.0034: real time    0.0034
    CHARGE:  cpu time    0.0482: real time    0.0482
    --------------------------------------------
      LOOP:  cpu time    4.0252: real time    4.0387

 eigenvalue-minimisations  :     0
 total energy-change (2. order) :-0.1708140E-01  (-0.2090174E-01)
 number of electron      23.0000057 magnetization       0.0000000      0.0000000      6.9727961
 augmentation part        4.5942142 magnetization       0.0000000      0.0000000      6.2707805

 Free energy of the ion-electron system (eV)
  ---------------------------------------------------
  alpha Z        PSCENC =       140.64914730
  Ewald energy   TEWEN  =     -2065.85032796
  -Hartree energ DENC   =      -804.02363676
  -exchange      EXHF   =         0.00000000
  -V(xc)+E(xc)   XCENC  =       100.34142425
  PAW double counting   =      2754.25368255    -2878.12410543
  entropy T*S    EENTRO =        -0.00000102
  eigenvalues    EBANDS =      -162.44699209
  atomic energy  EATOM  =      2896.60832281
  ---------------------------------------------------
  free energy    TOTEN  =       -18.59249046 eV

  energy without entropy =      -18.59248945  energy(sigma->0) =      -18.59248996


--------------------------------------------------------------------------------------------------------




--------------------------------------- Iteration      1(  11)  ---------------------------------------


    POTLOK:  cpu time    0.0066: real time    0.0066
    SETDIJ:  cpu time    1.7921: real time    1.7926
    TRIAL :  cpu time    2.1735: real time    2.1865
    CORREC:  cpu time    0.0032: real time    0.0032
    CHARGE:  cpu time    0.0481: real time    0.0481
    --------------------------------------------
      LOOP:  cpu time    4.0238: real time    4.0373

 eigenvalue-minimisations  :     0
 total energy-change (2. order) :-0.1625858E-01  (-0.2120596E-01)
 number of electron      23.0000057 magnetization      -0.0000000      0.0000000      6.9717493
 augmentation part        4.6039308 magnetization      -0.0000000      0.0000000      6.2688437

 Free energy of the ion-electron system (eV)
  ---------------------------------------------------
  alpha Z        PSCENC =       140.64914730
  Ewald energy   TEWEN  =     -2065.85032796
  -Hartree energ DENC   =      -802.86145595
  -exchange      EXHF   =         0.00000000
  -V(xc)+E(xc)   XCENC  =       100.31563680
  PAW double counting   =      2730.36615581    -2854.36648017
  entropy T*S    EENTRO =        -0.00000018
  eigenvalues    EBANDS =      -163.46974666
  atomic energy  EATOM  =      2896.60832281
  ---------------------------------------------------
  free energy    TOTEN  =       -18.60874905 eV

  energy without entropy =      -18.60874886  energy(sigma->0) =      -18.60874895


--------------------------------------------------------------------------------------------------------




--------------------------------------- Iteration      1(  12)  ---------------------------------------


    POTLOK:  cpu time    0.0065: real time    0.0065
    SETDIJ:  cpu time    1.7913: real time    1.7918
    TRIAL :  cpu time    2.1841: real time    2.1967
    CORREC:  cpu time    0.0031: real time    0.0031
    CHARGE:  cpu time    0.0496: real time    0.0496
    --------------------------------------------
      LOOP:  cpu time    4.0350: real time    4.0482

 eigenvalue-minimisations  :     0
 total energy-change (2. order) :-0.1490865E-01  (-0.6491686E-02)
 number of electron      23.0000057 magnetization      -0.0000000      0.0000000      6.9708224
 augmentation part        4.6110526 magnetization      -0.0000000      0.0000000      6.2672248

 Free energy of the ion-electron system (eV)
  ---------------------------------------------------
  alpha Z        PSCENC =       140.64914730
  Ewald energy   TEWEN  =     -2065.85032796
  -Hartree energ DENC   =      -803.37380851
  -exchange      EXHF   =         0.00000000
  -V(xc)+E(xc)   XCENC  =       100.35906988
  PAW double counting   =      2714.69046897    -2839.39844196
  entropy T*S    EENTRO =        -0.00000005
  eigenvalues    EBANDS =      -162.30808803
  atomic energy  EATOM  =      2896.60832281
  ---------------------------------------------------
  free energy    TOTEN  =       -18.62365770 eV

  energy without entropy =      -18.62365765  energy(sigma->0) =      -18.62365767


--------------------------------------------------------------------------------------------------------




--------------------------------------- Iteration      1(  13)  ---------------------------------------


    POTLOK:  cpu time    0.0066: real time    0.0066
    SETDIJ:  cpu time    1.7923: real time    1.7928
    TRIAL :  cpu time    2.1778: real time    2.1907
    CORREC:  cpu time    0.0026: real time    0.0026
    CHARGE:  cpu time    0.0483: real time    0.0483
    --------------------------------------------
      LOOP:  cpu time    4.0280: real time    4.0428

 eigenvalue-minimisations  :     0
 total energy-change (2. order) :-0.3694578E-02  (-0.1467419E-02)
 number of electron      23.0000057 magnetization       0.0000000     -0.0000000      6.9699974
 augmentation part        4.6139632 magnetization       0.0000000     -0.0000000      6.2640941

 Free energy of the ion-electron system (eV)
  ---------------------------------------------------
  alpha Z        PSCENC =       140.64914730
  Ewald energy   TEWEN  =     -2065.85032796
  -Hartree energ DENC   =      -803.81369671
  -exchange      EXHF   =         0.00000000
  -V(xc)+E(xc)   XCENC  =       100.39096768
  PAW double counting   =      2708.50953258    -2833.67563908
  entropy T*S    EENTRO =        -0.00000002
  eigenvalues    EBANDS =      -161.44565884
  atomic energy  EATOM  =      2896.60832281
  ---------------------------------------------------
  free energy    TOTEN  =       -18.62735228 eV

  energy without entropy =      -18.62735226  energy(sigma->0) =      -18.62735227


--------------------------------------------------------------------------------------------------------




--------------------------------------- Iteration      1(  14)  ---------------------------------------


    POTLOK:  cpu time    0.0065: real time    0.0065
    SETDIJ:  cpu time    1.7920: real time    1.7927
    TRIAL :  cpu time    2.1717: real time    2.1843
    CORREC:  cpu time    0.0028: real time    0.0028
    CHARGE:  cpu time    0.0482: real time    0.0482
    --------------------------------------------
      LOOP:  cpu time    4.0217: real time    4.0364

 eigenvalue-minimisations  :     0
 total energy-change (2. order) :-0.1049130E-02  (-0.1212972E-02)
 number of electron      23.0000057 magnetization      -0.0000000     -0.0000000      6.9692612
 augmentation part        4.6146529 magnetization      -0.0000000      0.0000000      6.2606951

 Free energy of the ion-electron system (eV)
  ---------------------------------------------------
  alpha Z        PSCENC =       140.64914730
  Ewald energy   TEWEN  =     -2065.85032796
  -Hartree energ DENC   =      -803.74936376
  -exchange      EXHF   =         0.00000000
  -V(xc)+E(xc)   XCENC  =       100.39366719
  PAW double counting   =      2708.55949794    -2833.79716313
  entropy T*S    EENTRO =        -0.00000001
  eigenvalues    EBANDS =      -161.44218178
  atomic energy  EATOM  =      2896.60832281
  ---------------------------------------------------
  free energy    TOTEN  =       -18.62840141 eV

  energy without entropy =      -18.62840139  energy(sigma->0) =      -18.62840140


--------------------------------------------------------------------------------------------------------




--------------------------------------- Iteration      1(  15)  ---------------------------------------


    POTLOK:  cpu time    0.0066: real time    0.0066
    SETDIJ:  cpu time    1.7903: real time    1.7909
    TRIAL :  cpu time    2.1743: real time    2.1875
    CORREC:  cpu time    0.0028: real time    0.0027
    CHARGE:  cpu time    0.0482: real time    0.0482
    --------------------------------------------
      LOOP:  cpu time    4.0224: real time    4.0369

 eigenvalue-minimisations  :     0
 total energy-change (2. order) :-0.9723969E-03  (-0.6947326E-03)
 number of electron      23.0000057 magnetization      -0.0000000      0.0000000      6.9685987
 augmentation part        4.6149651 magnetization      -0.0000000      0.0000000      6.2581771

 Free energy of the ion-electron system (eV)
  ---------------------------------------------------
  alpha Z        PSCENC =       140.64914730
  Ewald energy   TEWEN  =     -2065.85032796
  -Hartree energ DENC   =      -803.46496110
  -exchange      EXHF   =         0.00000000
  -V(xc)+E(xc)   XCENC  =       100.38250926
  PAW double counting   =      2711.14249873    -2836.28110075
  entropy T*S    EENTRO =        -0.00000001
  eigenvalues    EBANDS =      -161.81546209
  atomic energy  EATOM  =      2896.60832281
  ---------------------------------------------------
  free energy    TOTEN  =       -18.62937380 eV

  energy without entropy =      -18.62937379  energy(sigma->0) =      -18.62937380


--------------------------------------------------------------------------------------------------------




--------------------------------------- Iteration      1(  16)  ---------------------------------------


    POTLOK:  cpu time    0.0065: real time    0.0065
    SETDIJ:  cpu time    1.7886: real time    1.7892
    TRIAL :  cpu time    2.1717: real time    2.1839
    CORREC:  cpu time    0.0028: real time    0.0028
    CHARGE:  cpu time    0.0488: real time    0.0488
    --------------------------------------------
      LOOP:  cpu time    4.0188: real time    4.0315

 eigenvalue-minimisations  :     0
 total energy-change (2. order) :-0.5342153E-03  (-0.3217320E-03)
 number of electron      23.0000057 magnetization       0.0000000     -0.0000000      6.9679995
 augmentation part        4.6155501 magnetization       0.0000000     -0.0000000      6.2567029

 Free energy of the ion-electron system (eV)
  ---------------------------------------------------
  alpha Z        PSCENC =       140.64914730
  Ewald energy   TEWEN  =     -2065.85032796
  -Hartree energ DENC   =      -803.25148426
  -exchange      EXHF   =         0.00000000
  -V(xc)+E(xc)   XCENC  =       100.37272230
  PAW double counting   =      2713.83712273    -2838.89288809
  entropy T*S    EENTRO =        -0.00000001
  eigenvalues    EBANDS =      -162.10252284
  atomic energy  EATOM  =      2896.60832281
  ---------------------------------------------------
  free energy    TOTEN  =       -18.62990802 eV

  energy without entropy =      -18.62990801  energy(sigma->0) =      -18.62990801


--------------------------------------------------------------------------------------------------------




--------------------------------------- Iteration      1(  17)  ---------------------------------------


    POTLOK:  cpu time    0.0065: real time    0.0065
    SETDIJ:  cpu time    1.7888: real time    1.7893
    TRIAL :  cpu time    2.1711: real time    2.1835
    CORREC:  cpu time    0.0028: real time    0.0028
    CHARGE:  cpu time    0.0482: real time    0.0484
    --------------------------------------------
      LOOP:  cpu time    4.0178: real time    4.0309

 eigenvalue-minimisations  :     0
 total energy-change (2. order) :-0.2626276E-03  (-0.2006761E-03)
 number of electron      23.0000057 magnetization       0.0000000      0.0000000      6.9674570
 augmentation part        4.6163062 magnetization       0.0000000      0.0000000      6.2558694

 Free energy of the ion-electron system (eV)
  ---------------------------------------------------
  alpha Z        PSCENC =       140.64914730
  Ewald energy   TEWEN  =     -2065.85032796
  -Hartree energ DENC   =      -803.18857846
  -exchange      EXHF   =         0.00000000
  -V(xc)+E(xc)   XCENC  =       100.36928982
  PAW double counting   =      2715.64091039    -2840.68298260
  entropy T*S    EENTRO =        -0.00000001
  eigenvalues    EBANDS =      -162.17595193
  atomic energy  EATOM  =      2896.60832281
  ---------------------------------------------------
  free energy    TOTEN  =       -18.63017065 eV

  energy without entropy =      -18.63017064  energy(sigma->0) =      -18.63017064


--------------------------------------------------------------------------------------------------------




--------------------------------------- Iteration      1(  18)  ---------------------------------------


    POTLOK:  cpu time    0.0065: real time    0.0065
    SETDIJ:  cpu time    1.7890: real time    1.7896
    TRIAL :  cpu time    2.1712: real time    2.1837
    CORREC:  cpu time    0.0028: real time    0.0028
    CHARGE:  cpu time    0.0483: real time    0.0483
    --------------------------------------------
      LOOP:  cpu time    4.0181: real time    4.0312

 eigenvalue-minimisations  :     0
 total energy-change (2. order) :-0.1733845E-03  (-0.1400772E-03)
 number of electron      23.0000057 magnetization      -0.0000000     -0.0000000      6.9669664
 augmentation part        4.6169741 magnetization      -0.0000000     -0.0000000      6.2552532

 Free energy of the ion-electron system (eV)
  ---------------------------------------------------
  alpha Z        PSCENC =       140.64914730
  Ewald energy   TEWEN  =     -2065.85032796
  -Hartree energ DENC   =      -803.21935941
  -exchange      EXHF   =         0.00000000
  -V(xc)+E(xc)   XCENC  =       100.37028872
  PAW double counting   =      2716.48626545    -2841.55942956
  entropy T*S    EENTRO =        -0.00000001
  eigenvalues    EBANDS =      -162.11525136
  atomic energy  EATOM  =      2896.60832281
  ---------------------------------------------------
  free energy    TOTEN  =       -18.63034403 eV

  energy without entropy =      -18.63034403  energy(sigma->0) =      -18.63034403


--------------------------------------------------------------------------------------------------------




--------------------------------------- Iteration      1(  19)  ---------------------------------------


    POTLOK:  cpu time    0.0065: real time    0.0065
    SETDIJ:  cpu time    1.7890: real time    1.7895
    TRIAL :  cpu time    2.1699: real time    2.1824
    CORREC:  cpu time    0.0024: real time    0.0024
    CHARGE:  cpu time    0.0485: real time    0.0485
    --------------------------------------------
      LOOP:  cpu time    4.0167: real time    4.0297

 eigenvalue-minimisations  :     0
 total energy-change (2. order) :-0.1239544E-03  (-0.9690440E-04)
 number of electron      23.0000057 magnetization       0.0000000     -0.0000000      6.9665233
 augmentation part        4.6174248 magnetization       0.0000000     -0.0000000      6.2546255

 Free energy of the ion-electron system (eV)
  ---------------------------------------------------
  alpha Z        PSCENC =       140.64914730
  Ewald energy   TEWEN  =     -2065.85032796
  -Hartree energ DENC   =      -803.26720133
  -exchange      EXHF   =         0.00000000
  -V(xc)+E(xc)   XCENC  =       100.37238431
  PAW double counting   =      2716.67101017    -2841.78383543
  entropy T*S    EENTRO =        -0.00000000
  eigenvalues    EBANDS =      -162.02996785
  atomic energy  EATOM  =      2896.60832281
  ---------------------------------------------------
  free energy    TOTEN  =       -18.63046798 eV

  energy without entropy =      -18.63046798  energy(sigma->0) =      -18.63046798


--------------------------------------------------------------------------------------------------------




--------------------------------------- Iteration      1(  20)  ---------------------------------------


    POTLOK:  cpu time    0.0065: real time    0.0065
    SETDIJ:  cpu time    1.7889: real time    1.7895
    TRIAL :  cpu time    2.2016: real time    2.2141
    CORREC:  cpu time    0.0027: real time    0.0027
    EDDIAG:  cpu time    1.0421: real time    1.0532
    CHARGE:  cpu time    0.0482: real time    0.0482
    --------------------------------------------
      LOOP:  cpu time    5.0903: real time    5.1144

 eigenvalue-minimisations  :     0
 total energy-change (2. order) :-0.8737803E-04  (-0.7118203E-04)
 number of electron      23.0000057 magnetization       0.0000000     -0.0000000      6.9661233
 augmentation part        4.6176904 magnetization       0.0000000     -0.0000000      6.2539598

 Free energy of the ion-electron system (eV)
  ---------------------------------------------------
  alpha Z        PSCENC =       140.64914730
  Ewald energy   TEWEN  =     -2065.85032796
  -Hartree energ DENC   =      -803.29180910
  -exchange      EXHF   =         0.00000000
  -V(xc)+E(xc)   XCENC  =       100.37360360
  PAW double counting   =      2716.55718818    -2841.69679446
  entropy T*S    EENTRO =        -0.00000000
  eigenvalues    EBANDS =      -161.97988573
  atomic energy  EATOM  =      2896.60832281
  ---------------------------------------------------
  free energy    TOTEN  =       -18.63055536 eV

  energy without entropy =      -18.63055536  energy(sigma->0) =      -18.63055536


--------------------------------------------------------------------------------------------------------


  average scaling for gradient   0.5565


 average (electrostatic) potential at core
  the test charge radii are     1.1829  0.9698
  (the norm of the test charge is              1.0000)
       1 -37.0718       2 -87.5524
 
 
 
 E-fermi :   3.0467     XC(G=0):  -9.4924     alpha+bet : -9.9709


 k-point     1 :       0.0000    0.0000    0.0000
  band No.  band energies     occupation 
      1     -36.3636      1.00000
      2     -33.1987      1.00000
      3     -17.1703      1.00000
      4     -16.4632      1.00000
      5     -14.1149      1.00000
      6     -12.9451      1.00000
      7     -12.3294      1.00000
      8     -11.8488      1.00000
      9      -9.1186      1.00000
     10      -9.1028      1.00000
     11       0.3194      1.00000
     12       0.4235      1.00000
     13       0.4648      1.00000
     14       0.7841      1.00000
     15       0.9988      1.00000
     16       1.0856      1.00000
     17       1.1548      1.00000
     18       1.7585      1.00000
     19       1.8189      1.00000
     20       1.8855      1.00000
     21       2.3321      1.00000
     22       2.3407      1.00000
     23       2.3711      1.00000
     24       5.3347      0.00000
     25       5.6223      0.00000
     26       5.6495      0.00000
     27       5.6871      0.00000
     28       5.7410      0.00000
     29       6.2450      0.00000
     30       6.2965      0.00000
     31       6.3170      0.00000
     32       6.5401      0.00000
     33       6.5497      0.00000
     34       7.2780      0.00000
     35       7.2801      0.00000
     36      11.2309      0.00000
     37      11.2900      0.00000
     38      13.9682      0.00000
     39      14.1240      0.00000
     40      14.1678      0.00000
     41      14.2487      0.00000
     42      14.3011      0.00000
     43      14.4694      0.00000
     44      15.4117      0.00000
     45      17.0771      0.00000
     46      17.1271      0.00000
     47      17.1855      0.00000
     48      17.8175      0.00000
     49      17.8880      0.00000
     50      17.9433      0.00000
     51      18.7889      0.00000
     52      19.0596      0.00000
     53      19.6585      0.00000
     54      20.4058      0.00000
     55      20.7291      0.00000
     56      21.0206      0.00000
     57      21.0917      0.00000
     58      21.0928      0.00000
     59      21.9483      0.00000
     60      21.9499      0.00000
     61      23.4692      0.00000
     62      23.6330      0.00000
     63      23.7798      0.00000
     64      24.3118      0.00000
     65      24.3163      0.00000
     66      24.3186      0.00000
     67      24.7662      0.00000
     68      25.7180      0.00000
     69      26.0175      0.00000
     70      26.1518      0.00000
     71      26.2769      0.00000
     72      26.9764      0.00000
     73      26.9766      0.00000
     74      27.1446      0.00000
     75      27.1448      0.00000
     76      29.5191      0.00000
     77      29.5486      0.00000
     78      29.5832      0.00000
     79      29.9823      0.00000
[...]
  0.000   0.000   0.000   0.000  -0.003  -0.000   0.000  -0.002   0.000   0.000   0.000   0.000   0.000   0.000   0.000   0.000
  0.000   0.000  -0.000  -0.002  -0.000  -0.000  -0.002   0.000   0.000   0.000   0.000   0.000   0.000   0.000   0.000   0.000
  0.000   0.000  -0.000  -0.000  -0.000   0.000  -0.000   0.000   0.000   0.000   0.000   0.000   0.000   0.000   0.000   0.000
  0.000   0.000   0.000   0.002   0.000   0.000   0.002   0.000   0.000   0.000   0.000   0.000   0.000   0.000   0.000   0.000
  0.000   0.000  -0.000   0.000   0.000   0.000   0.000   0.000   0.000   0.000   0.000   0.000   0.000   0.000   0.000   0.000
  0.000   0.000   0.000   0.000   0.000  -0.000   0.000   0.000   0.000   0.000   0.000   0.000   0.000   0.000   0.000   0.000
  0.000   0.000   0.000   0.000   0.000  -0.000  -0.000   0.000   0.000   0.000   0.000   0.000   0.000   0.000   0.000   0.000
  0.000   0.000  -0.000   0.000   0.002   0.000   0.000   0.002   0.000   0.000   0.000   0.000   0.000   0.000   0.000   0.000
  0.000   0.000   0.000   0.002   0.000   0.000   0.001   0.000   0.000   0.000   0.000   0.000   0.000   0.000   0.000   0.000
  0.000   0.000   0.000  -0.000   0.000  -0.000   0.000  -0.000   0.000   0.000   0.000   0.000   0.000   0.000   0.000   0.000
  0.000   0.000   0.000  -0.002  -0.000  -0.000  -0.001   0.000   0.000   0.000   0.000   0.000   0.000   0.000   0.000   0.000
 total augmentation occupancy for first ion, spin component:           3
  0.000   0.000   0.000   0.000   0.000   0.000   0.000   0.000   0.000   0.000   0.000  -0.000   0.000   0.000   0.000   0.000
  0.000   0.000   0.000   0.000   0.000   0.000   0.000   0.000   0.000  -0.000   0.000   0.000   0.000   0.000  -0.000   0.000
  0.000   0.000  -0.000   0.000  -0.000   0.000  -0.001   0.000   0.000   0.000   0.000   0.000   0.000   0.000   0.000   0.000
  0.000   0.000   0.000   0.000  -0.000   0.001   0.000  -0.000   0.000   0.000   0.000   0.000   0.000   0.000   0.000   0.000
  0.000   0.000  -0.000  -0.000   0.000   0.000   0.000  -0.000   0.000   0.000   0.000   0.000   0.000   0.000   0.000   0.000
  0.000   0.000   0.000   0.001   0.000  -0.000   0.000   0.000   0.000   0.000   0.000   0.000   0.000   0.000   0.000   0.000
  0.000   0.000  -0.001   0.000   0.000   0.000   0.000  -0.000   0.000   0.000   0.000   0.000   0.000   0.000   0.000   0.000
  0.000   0.000   0.000  -0.000  -0.000   0.000  -0.000   0.000   0.000   0.000   0.000   0.000   0.000   0.000   0.000   0.000
  0.000   0.000   0.000   0.000   0.000   0.000   0.000   0.000   0.000  -0.000   0.000  -0.000   0.000   0.000  -0.000  -0.000
  0.000  -0.000   0.000   0.000   0.000   0.000   0.000   0.000  -0.000  -0.000  -0.000   0.000  -0.000  -0.000   0.000   0.000
  0.000   0.000   0.000   0.000   0.000   0.000   0.000   0.000   0.000  -0.000   0.000  -0.000   0.000   0.000  -0.000   0.000
 -0.000   0.000   0.000   0.000   0.000   0.000   0.000   0.000  -0.000   0.000  -0.000   0.000  -0.000  -0.000   0.000   0.000
  0.000   0.000   0.000   0.000   0.000   0.000   0.000   0.000   0.000  -0.000   0.000  -0.000   0.000   0.000  -0.000  -0.000
  0.000   0.000   0.000   0.000   0.000   0.000   0.000   0.000   0.000  -0.000   0.000  -0.000   0.000   0.000  -0.000   0.000
  0.000  -0.000   0.000   0.000   0.000   0.000   0.000   0.000  -0.000   0.000  -0.000   0.000  -0.000  -0.000   0.000  -0.000
  0.000   0.000   0.000   0.000   0.000   0.000   0.000   0.000  -0.000   0.000   0.000   0.000  -0.000   0.000  -0.000   0.000
 -0.000   0.000   0.000   0.000   0.000   0.000   0.000   0.000   0.000   0.000   0.000  -0.000  -0.000  -0.000   0.000   0.000
  0.000   0.000   0.000   0.000   0.000   0.000   0.000   0.000  -0.000   0.000   0.000  -0.000   0.000   0.000  -0.000   0.000
  0.000   0.000   0.000  -0.002  -0.000   0.000  -0.002   0.000   0.000   0.000   0.000   0.000   0.000   0.000   0.000   0.000
  0.000   0.000   0.000   0.000  -0.000  -0.000   0.000   0.000   0.000   0.000   0.000   0.000   0.000   0.000   0.000   0.000
  0.000   0.000   0.000  -0.002  -0.000   0.000  -0.002  -0.000   0.000   0.000   0.000   0.000   0.000   0.000   0.000   0.000
  0.000   0.000  -0.003   0.000  -0.000  -0.002   0.000   0.000   0.000   0.000   0.000   0.000   0.000   0.000   0.000   0.000
  0.000   0.000  -0.000   0.000  -0.000  -0.000  -0.000   0.000   0.000   0.000   0.000   0.000   0.000   0.000   0.000   0.000
  0.000   0.000   0.000  -0.000  -0.000  -0.000  -0.000   0.000   0.000   0.000   0.000   0.000   0.000   0.000   0.000   0.000
  0.000   0.000   0.000  -0.000   0.000   0.000   0.000   0.000   0.000   0.000   0.000   0.000   0.000   0.000   0.000   0.000
  0.000   0.000  -0.000   0.002   0.000   0.000   0.001   0.000   0.000   0.000   0.000   0.000   0.000   0.000   0.000   0.000
  0.000   0.000  -0.000   0.000   0.000  -0.000   0.000  -0.000   0.000   0.000   0.000   0.000   0.000   0.000   0.000   0.000
  0.000   0.000   0.000   0.002   0.000  -0.000   0.001   0.000   0.000   0.000   0.000   0.000   0.000   0.000   0.000   0.000
  0.000   0.000   0.002   0.000   0.000   0.002   0.000  -0.000   0.000   0.000   0.000   0.000   0.000   0.000   0.000   0.000
  0.000   0.000   0.000  -0.000   0.000   0.000   0.000   0.000   0.000   0.000   0.000   0.000   0.000   0.000   0.000   0.000
  0.000   0.000  -0.000  -0.000   0.000   0.000   0.000  -0.000   0.000   0.000   0.000   0.000   0.000   0.000   0.000   0.000
  0.000   0.000   0.000   0.000  -0.000  -0.000   0.000   0.000   0.000   0.000   0.000   0.000   0.000   0.000   0.000   0.000
 total augmentation occupancy for first ion, spin component:           4
 -0.040  -0.157   0.000   0.000   0.000   0.000   0.000   0.000   0.000   0.000  -0.000   0.000   0.000   0.000   0.000  -0.000
 -0.157   0.096   0.000   0.000   0.000   0.000   0.000   0.000   0.000   0.000   0.000   0.000   0.000   0.000   0.000   0.000
  0.000   0.000  -0.006   0.000  -0.000  -0.044   0.000  -0.000   0.000   0.000   0.000   0.000   0.000   0.000   0.000   0.000
  0.000   0.000   0.000  -0.006   0.000   0.000  -0.044   0.000   0.000   0.000   0.000   0.000   0.000   0.000   0.000   0.000
  0.000   0.000   0.000   0.000  -0.006   0.000   0.000  -0.044   0.000   0.000   0.000   0.000   0.000   0.000   0.000   0.000
  0.000   0.000  -0.044   0.000   0.000   0.001   0.000   0.000   0.000   0.000   0.000   0.000   0.000   0.000   0.000   0.000
  0.000   0.000   0.000  -0.044   0.000   0.000   0.001   0.000   0.000   0.000   0.000   0.000   0.000   0.000   0.000   0.000
  0.000   0.000  -0.000   0.000  -0.044   0.000   0.000   0.001   0.000   0.000   0.000   0.000   0.000   0.000   0.000   0.000
  0.000   0.000   0.000   0.000   0.000   0.000   0.000   0.000   0.014  -0.000   0.000   0.000  -0.000   0.004   0.000  -0.000
  0.000   0.000   0.000   0.000   0.000   0.000   0.000   0.000  -0.000   0.014   0.000   0.000   0.000  -0.000   0.004   0.000
 -0.000   0.000   0.000   0.000   0.000   0.000   0.000   0.000   0.000   0.000   0.039   0.000   0.000   0.000   0.000   0.010
  0.000   0.000   0.000   0.000   0.000   0.000   0.000   0.000   0.000   0.000   0.000   0.014  -0.000   0.000   0.000   0.000
  0.000   0.000   0.000   0.000   0.000   0.000   0.000   0.000  -0.000   0.000   0.000  -0.000   0.039  -0.000   0.000   0.000
  0.000   0.000   0.000   0.000   0.000   0.000   0.000   0.000   0.004  -0.000   0.000   0.000  -0.000   0.001  -0.000   0.000
  0.000   0.000   0.000   0.000   0.000   0.000   0.000   0.000   0.000   0.004   0.000   0.000   0.000  -0.000   0.001   0.000
 -0.000   0.000   0.000   0.000   0.000   0.000   0.000   0.000  -0.000   0.000   0.010   0.000   0.000   0.000   0.000   0.003
  0.000   0.000   0.000   0.000   0.000   0.000   0.000   0.000  -0.000  -0.000   0.000   0.004  -0.000   0.000   0.000   0.000
  0.000   0.000   0.000   0.000   0.000   0.000   0.000   0.000  -0.000   0.000   0.000   0.000   0.010  -0.000   0.000   0.000
  0.000   0.000  -0.019   0.000  -0.000   0.021   0.000  -0.000   0.000   0.000   0.000   0.000   0.000   0.000   0.000   0.000
  0.000   0.000  -0.000   0.000   0.000   0.000   0.000  -0.000   0.000   0.000   0.000   0.000   0.000   0.000   0.000   0.000
  0.000   0.000  -0.014   0.000  -0.000   0.016   0.000  -0.000   0.000   0.000   0.000   0.000   0.000   0.000   0.000   0.000
  0.000   0.000   0.000   0.023   0.000   0.000  -0.027  -0.000   0.000   0.000   0.000   0.000   0.000   0.000   0.000   0.000
  0.000   0.000   0.000  -0.000  -0.014   0.000  -0.000   0.016   0.000   0.000   0.000   0.000   0.000   0.000   0.000   0.000
  0.000   0.000   0.000  -0.000   0.000   0.000  -0.000   0.000   0.000   0.000   0.000   0.000   0.000   0.000   0.000   0.000
  0.000   0.000  -0.000  -0.000   0.019  -0.000   0.000  -0.021   0.000   0.000   0.000   0.000   0.000   0.000   0.000   0.000
  0.000   0.000   0.015   0.000   0.000  -0.018  -0.000   0.000   0.000   0.000   0.000   0.000   0.000   0.000   0.000   0.000
  0.000   0.000   0.000   0.000   0.000   0.000   0.000   0.000   0.000   0.000   0.000   0.000   0.000   0.000   0.000   0.000
  0.000   0.000   0.011   0.000   0.000  -0.014   0.000   0.000   0.000   0.000   0.000   0.000   0.000   0.000   0.000   0.000
  0.000   0.000   0.000  -0.019  -0.000   0.000   0.022   0.000   0.000   0.000   0.000   0.000   0.000   0.000   0.000   0.000
  0.000   0.000  -0.000   0.000   0.011  -0.000   0.000  -0.014   0.000   0.000   0.000   0.000   0.000   0.000   0.000   0.000
  0.000   0.000   0.000   0.000   0.000   0.000   0.000  -0.000   0.000   0.000   0.000   0.000   0.000   0.000   0.000   0.000
  0.000   0.000   0.000   0.000  -0.015   0.000  -0.000   0.018   0.000   0.000   0.000   0.000   0.000   0.000   0.000   0.000


------------------------ aborting loop because EDIFF is reached ----------------------------------------


 


 total charge     
 
# of ion       s       p       d       f       tot
--------------------------------------------------
    1        2.075   5.865   0.374   6.960  15.274
    2        1.317   2.458   0.000   0.000   3.775
--------------------------------------------------
tot          3.392   8.323   0.374   6.960  19.049

 


 magnetization (x)
 
# of ion       s       p       d       f       tot
--------------------------------------------------
    1        0.000   0.000  -0.000  -0.000   0.000
    2       -0.000   0.000   0.000   0.000   0.000
--------------------------------------------------
tot          0.000   0.000  -0.000  -0.000   0.000

 


 magnetization (y)
 
# of ion       s       p       d       f       tot
--------------------------------------------------
    1       -0.000  -0.000   0.000   0.000   0.000
    2        0.000   0.000   0.000   0.000   0.000
--------------------------------------------------
tot          0.000  -0.000   0.000   0.000   0.000

 


 magnetization (z)
 
# of ion       s       p       d       f       tot
--------------------------------------------------
    1       -0.010  -0.011   0.062   6.902   6.943
    2       -0.007  -0.059   0.000   0.000  -0.066
--------------------------------------------------
tot         -0.017  -0.070   0.062   6.902   6.877

 
    FORLOC:  cpu time    0.0006: real time    0.0006
    FORNL :  cpu time    0.1570: real time    0.1571
    STRESS:  cpu time    0.3775: real time    0.3781
    FORCOR:  cpu time    0.0080: real time    0.0097
    OFIELD:  cpu time    0.0001: real time    0.0001

  FORCE on cell =-STRESS in cart. coord.  units (eV):
  Direction    XX          YY          ZZ          XY          YZ          ZX
  --------------------------------------------------------------------------------------
  Alpha Z   140.64915   140.64915   140.64915
  Ewald    -688.61694  -688.61694  -688.61694    -0.00000     0.00000    -0.00000
  Hartree   267.77111   267.77111   267.74924     0.00000     0.00000     0.00000
  E(xc)    -113.65857  -113.65857  -113.65989     0.00004     0.00004     0.00004
  Local     111.94106   111.94106   111.98255     0.00045     0.00047     0.00047
  n-local   -15.73276   -16.14990   -15.93464    -0.02374     0.00755    -0.01808
  augment    25.09661    25.09661    25.09538     0.00006     0.00006     0.00006
  Kinetic   273.23940   272.87179   273.03476     4.79782    -4.27797     3.79131
  Fock        0.00000     0.00000     0.00000     0.00000     0.00000     0.00000
  -------------------------------------------------------------------------------------
  Total       0.29668     0.29668     0.29961    -0.00000     0.00000     0.00000
  in kB       8.94479     8.94479     9.03332    -0.00001     0.00000     0.00000
  external pressure =        8.97 kB  Pullay stress =        0.00 kB


 VOLUME and BASIS-vectors are now :
 -----------------------------------------------------------------------------
  energy-cutoff  :      300.00
  volume of cell :       53.14
      direct lattice vectors                 reciprocal lattice vectors
     0.000000000  2.984000000  2.984000000    -0.167560322  0.167560322  0.167560322
     2.984000000  0.000000000  2.984000000     0.167560322 -0.167560322  0.167560322
     2.984000000  2.984000000  0.000000000     0.167560322  0.167560322 -0.167560322

  length of vectors
     4.220013270  4.220013270  4.220013270     0.290222991  0.290222991  0.290222991


 FORCES acting on ions:
    Electron-Ion                     Ewald-Force                    Non-Local-Force
 -----------------------------------------------------------------------------------------------
   0.519E-13 0.325E-13 0.523E-13   -.166E-14 -.632E-15 -.651E-15   0.000E+00 0.000E+00 0.000E+00
   -.300E-13 -.201E-13 -.224E-13   0.699E-15 0.358E-15 -.374E-16   0.217E-18 0.217E-18 0.000E+00
 -----------------------------------------------------------------------------------------------
   0.182E-13 0.104E-13 0.278E-13   -.966E-15 -.274E-15 -.688E-15   0.217E-18 0.217E-18 0.000E+00
 
 
 POSITION                                       TOTAL-FORCE (eV/Angst)
 -----------------------------------------------------------------------------------
      0.00000      0.00000      0.00000        -0.000000      0.000000      0.000000
      2.98400      2.98400      2.98400         0.000000      0.000000      0.000000
 -----------------------------------------------------------------------------------
    total drift:                                0.000000      0.000000      0.000000


--------------------------------------------------------------------------------------------------------



  FREE ENERGIE OF THE ION-ELECTRON SYSTEM (eV)
  ---------------------------------------------------
  free  energy   TOTEN  =       -18.63055536 eV

  energy  without entropy=      -18.63055536  energy(sigma->0) =      -18.63055536
 


--------------------------------------------------------------------------------------------------------


    POTLOK:  cpu time    1.7954: real time    1.7965


--------------------------------------------------------------------------------------------------------


 writing wavefunctions
     LOOP+:  cpu time   93.4466: real time   94.9369
    4ORBIT:  cpu time    0.0000: real time    0.0000

 Spin-Orbit-Coupling matrix elements

 Ion:    1  E_soc:     -1.0095223
 l=   1
     0.0000000    -0.1379227    -0.1377887
    -0.1379227     0.0000000    -0.1379227
    -0.1377887    -0.1379227     0.0000000
 l=   2
     0.0000000    -0.0000310     0.0000000    -0.0000310    -0.0003287
    -0.0000310     0.0000000    -0.0002562    -0.0000332    -0.0000852
     0.0000000    -0.0002562     0.0000000    -0.0002562     0.0000000
    -0.0000310    -0.0000332    -0.0002562     0.0000000    -0.0000852
    -0.0003287    -0.0000852     0.0000000    -0.0000852     0.0000000
 l=   3
     0.0000000    -0.0047229     0.0000000     0.0000000     0.0000000    -0.0047196    -0.0015040
    -0.0047229     0.0000000    -0.0078215     0.0000000    -0.0078215    -0.0007332    -0.0047229
     0.0000000    -0.0078215     0.0000000    -0.0187078    -0.0001932    -0.0078233     0.0000000
     0.0000000     0.0000000    -0.0187078     0.0000000    -0.0187078     0.0000000     0.0000000
     0.0000000    -0.0078215    -0.0001932    -0.0187078     0.0000000    -0.0078233     0.0000000
    -0.0047196    -0.0007332    -0.0078233     0.0000000    -0.0078233     0.0000000    -0.0047196
    -0.0015040    -0.0047229     0.0000000     0.0000000     0.0000000    -0.0047196     0.0000000

 Ion:    2  E_soc:     -0.0025071
 l=   1
     0.0000000    -0.0004206    -0.0004123
    -0.0004206     0.0000000    -0.0004206
    -0.0004123    -0.0004206     0.0000000
 l=   2
     0.0000000     0.0000000     0.0000000     0.0000000     0.0000000
     0.0000000     0.0000000     0.0000000     0.0000000     0.0000000
     0.0000000     0.0000000     0.0000000     0.0000000     0.0000000
     0.0000000     0.0000000     0.0000000     0.0000000     0.0000000
     0.0000000     0.0000000     0.0000000     0.0000000     0.0000000
 l=   3
     0.0000000     0.0000000     0.0000000     0.0000000     0.0000000     0.0000000     0.0000000
     0.0000000     0.0000000     0.0000000     0.0000000     0.0000000     0.0000000     0.0000000
     0.0000000     0.0000000     0.0000000     0.0000000     0.0000000     0.0000000     0.0000000
     0.0000000     0.0000000     0.0000000     0.0000000     0.0000000     0.0000000     0.0000000
     0.0000000     0.0000000     0.0000000     0.0000000     0.0000000     0.0000000     0.0000000
     0.0000000     0.0000000     0.0000000     0.0000000     0.0000000     0.0000000     0.0000000
     0.0000000     0.0000000     0.0000000     0.0000000     0.0000000     0.0000000     0.0000000
 


 total charge     
 
# of ion       s       p       d       f       tot
--------------------------------------------------
    1        2.075   5.865   0.374   6.960  15.274
    2        1.317   2.458   0.000   0.000   3.775
--------------------------------------------------
tot          3.392   8.323   0.374   6.960  19.049

 


 magnetization (x)
 
# of ion       s       p       d       f       tot
--------------------------------------------------
    1        0.000   0.000  -0.000  -0.000   0.000
    2       -0.000   0.000   0.000   0.000   0.000
--------------------------------------------------
tot          0.000   0.000  -0.000  -0.000   0.000

 


 magnetization (y)
 
# of ion       s       p       d       f       tot
--------------------------------------------------
    1       -0.000  -0.000   0.000   0.000   0.000
    2        0.000   0.000   0.000   0.000   0.000
--------------------------------------------------
tot          0.000  -0.000   0.000   0.000   0.000

 


 magnetization (z)
 
# of ion       s       p       d       f       tot
--------------------------------------------------
    1       -0.010  -0.011   0.062   6.902   6.943
    2       -0.007  -0.059   0.000   0.000  -0.066
--------------------------------------------------
tot         -0.017  -0.070   0.062   6.902   6.877

 

 total amount of memory used by VASP MPI-rank0    48541. kBytes
=======================================================================

   base      :      30000. kBytes
   nonl-proj :       3637. kBytes
   fftplans  :        122. kBytes
   grid      :        435. kBytes
   one-center:        196. kBytes
   wavefun   :      14151. kBytes
 
  
  
 General timing and accounting informations for this job:
 ========================================================
  
                  Total CPU time used (sec):       98.785
                            User time (sec):       92.387
                          System time (sec):        6.398
                         Elapsed time (sec):      100.705
  
                   Maximum memory used (kb):      109648.
                   Average memory used (kb):           0.
  
                          Minor page faults:        62172
                          Major page faults:            0
                 Voluntary context switches:         3711
