 running on   56 total cores
 distrk:  each k-point on   56 cores,    1 groups
 distr:  one band on    1 cores,   56 groups
 using from now: INCAR     
 vasp.5.4.4.18Apr17-6-g9f103f2a35 (build Nov 08 2017 12:56:59) complex          
  
 POSCAR found type information on POSCAR  Ge
 POSCAR found :  1 types and       2 ions
 scaLAPACK will be used

 ----------------------------------------------------------------------------- 
|                                                                             |
|           W    W    AA    RRRRR   N    N  II  N    N   GGGG   !!!           |
|           W    W   A  A   R    R  NN   N  II  NN   N  G    G  !!!           |
|           W    W  A    A  R    R  N N  N  II  N N  N  G       !!!           |
|           W WW W  AAAAAA  RRRRR   N  N N  II  N  N N  G  GGG   !            |
|           WW  WW  A    A  R   R   N   NN  II  N   NN  G    G                |
|           W    W  A    A  R    R  N    N  II  N    N   GGGG   !!!           |
|                                                                             |
|      For optimal performance we recommend to set                            |
|        NCORE= 4 - approx SQRT( number of cores)                             |
|      NCORE specifies how many cores store one orbital (NPAR=cpu/NCORE).     |
|      This setting can  greatly improve the performance of VASP for DFT.     |
|      The default,   NCORE=1            might be grossly inefficient         |
|      on modern multi-core architectures or massively parallel machines.     |
|      Do your own testing !!!!                                               |
|      Unfortunately you need to use the default for GW and RPA calculations. |
|      (for HF NCORE is supported but not extensively tested yet)             |
|                                                                             |
 ----------------------------------------------------------------------------- 

 LDA part: xc-table for Pade appr. of Perdew
 POSCAR, INCAR and KPOINTS ok, starting setup
 FFT: planning ...
 WAVECAR not read
 entering main loop
       N       E                     dE             d eps       ncg     rms          ort
DAV:   1    -0.220847155607E+01   -0.22085E+01   -0.48469E+03   896   0.138E+02
DAV:   2    -0.895156378819E+01   -0.67431E+01   -0.67326E+01   896   0.126E+01
DAV:   3    -0.898213740417E+01   -0.30574E-01   -0.30574E-01   896   0.113E+00
DAV:   4    -0.898231606863E+01   -0.17866E-03   -0.20522E-03   896   0.839E-02
DAV:   5    -0.898231651454E+01   -0.44590E-06   -0.44615E-06   896   0.435E-03
 gam= 0.000 g(H,U,f)=  0.516E-02 0.256E-01-0.519E-06 ort(H,U,f) = 0.000E+00 0.000E+00 0.000E+00
SDA:   6    -0.885356626615E+01    0.12875E+00   -0.12317E-01   896   0.308E-01 0.000E+00
 gam= 0.382 g(H,U,f)=  0.171E-02 0.159E-01-0.170E-06 ort(H,U,f) = 0.301E-02 0.202E-01-0.242E-06
DMP:   7    -0.886435752120E+01   -0.10791E-01   -0.10569E-01   896   0.176E-01 0.232E-01
 gam= 0.382 g(H,U,f)=  0.203E-03 0.745E-02-0.447E-05 ort(H,U,f) = 0.940E-03 0.162E-01-0.102E-04
DMP:   8    -0.887308129094E+01   -0.87238E-02   -0.56712E-02   896   0.765E-02 0.171E-01
 gam= 0.382 g(H,U,f)=  0.460E-04 0.284E-02-0.305E-08 ort(H,U,f) =-0.656E-04 0.840E-02-0.168E-07
DMP:   9    -0.887755743421E+01   -0.44761E-02   -0.24300E-02   896   0.289E-02 0.834E-02
 gam= 0.382 g(H,U,f)=  0.941E-04 0.899E-03-0.284E-09 ort(H,U,f) =-0.620E-04 0.338E-02-0.717E-09
DMP:  10    -0.887943494422E+01   -0.18775E-02   -0.90498E-03   896   0.993E-03 0.332E-02
 gam= 0.382 g(H,U,f)=  0.655E-04 0.235E-03-0.927E-09 ort(H,U,f) = 0.480E-04 0.110E-02 0.277E-09
DMP:  11    -0.888011572151E+01   -0.68078E-03   -0.29582E-03   896   0.301E-03 0.115E-02
 gam= 0.382 g(H,U,f)=  0.214E-04 0.520E-04-0.125E-08 ort(H,U,f) = 0.434E-04 0.286E-03-0.753E-09
DMP:  12    -0.888032867861E+01   -0.21296E-03   -0.79761E-04   896   0.734E-04 0.330E-03
 gam= 0.382 g(H,U,f)=  0.357E-05 0.124E-04-0.113E-08 ort(H,U,f) = 0.115E-04 0.575E-04-0.137E-08
DMP:  13    -0.888038183234E+01   -0.53154E-04   -0.16917E-04   896   0.159E-04 0.690E-04
 final diagonalization
   1 F= -.88803818E+01 E0= -.88803954E+01  d E =0.407260E-04
 writing wavefunctions
