unknown system                          
           1
     0.000000    2.984000    2.984000
     2.984000    0.000000    2.984000
     2.984000    2.984000    0.000000
   Eu   S 
   1   1
Direct configuration=     1
   0.00000000  0.00000000  0.00000000
   0.50000000  0.50000000  0.50000000
