unknown system                          
   1.00000000000000     
     0.000000    2.984000    2.984000
     2.984000    0.000000    2.984000
     2.984000    2.984000    0.000000
   Eu   S 
     1     1
Direct
  0.000000  0.000000  0.000000
  0.500000  0.500000  0.500000
 
   36   36   36
 0.19080253315E+06 0.10128038473E+04 0.11768032999E+04 0.47324688316E+03 0.27284799851E+03
 0.21680009848E+03 0.15159718148E+03 0.93446096382E+02 0.53754629996E+02 0.30289716619E+02
 0.17393403103E+02 0.10608717437E+02 0.71254768816E+01 0.53313236881E+01 0.43825148813E+01
 0.38999137711E+01 0.36351857030E+01 0.35196145201E+01 0.34749205700E+01 0.35196145201E+01
 0.36351857030E+01 0.38999137711E+01 0.43825148813E+01 0.53313236881E+01 0.71254768816E+01
 0.10608717437E+02 0.17393403103E+02 0.30289716619E+02 0.53754629996E+02 0.93446096382E+02
 0.15159718148E+03 0.21680009848E+03 0.27284799851E+03 0.47324688316E+03 0.11768032999E+04
 0.10128038473E+04 0.10128038473E+04 0.12249292036E+04 0.68057304738E+03 0.31077521122E+03
 0.24039011201E+03 0.18031414553E+03 0.11712349167E+03 0.69317975002E+02 0.39332468033E+02
 0.22359797538E+02 0.13121592472E+02 0.84790344373E+01 0.60384998874E+01 0.47591822083E+01
 0.40993949827E+01 0.37470606513E+01 0.35713299211E+01 0.34948925629E+01 0.34948287901E+01
 0.35712979206E+01 0.37471532465E+01 0.40993200653E+01 0.47593196668E+01 0.60383107564E+01
 0.84792827415E+01 0.13121186192E+02 0.22360409014E+02 0.39331828153E+02 0.69320468371E+02
 0.11712235058E+03 0.18031885658E+03 0.24039009568E+03 0.31077837946E+03 0.68058118255E+03
 0.12249199188E+04 0.10128003257E+04 0.11768032999E+04 0.68057304738E+03 0.33332116358E+03
 0.25211076888E+03 0.19852309448E+03 0.13591969172E+03 0.83487246890E+02 0.48346407793E+02
 0.27584464132E+02 0.15822921009E+02 0.10010265609E+02 0.68532031040E+01 0.52108834750E+01
 0.43437394695E+01 0.38957598697E+01 0.36541865220E+01 0.35448856423E+01 0.35059655062E+01
 0.35449768020E+01 0.36541185066E+01 0.38957696729E+01 0.43436378538E+01 0.52109855014E+01
 0.68530768354E+01 0.10010583277E+02 0.15821981924E+02 0.27584836779E+02 0.48347294284E+02
 0.83490472818E+02 0.13591918807E+03 0.19852680463E+03 0.25210974030E+03 0.33332127623E+03
 0.68057393976E+03 0.11768016878E+04 0.12249199188E+04 0.47324688316E+03 0.31077521122E+03
 0.25211076888E+03 0.20463521364E+03 0.14623622828E+03 0.93444590065E+02 0.55727540104E+02
 0.32290841476E+02 0.18887351802E+02 0.11541687985E+02 0.77191663263E+01 0.56970373406E+01
 0.46241320124E+01 0.40657040864E+01 0.37661899774E+01 0.36167549351E+01 0.35516269482E+01
 0.35520306686E+01 0.36163438005E+01 0.37665805373E+01 0.40654157185E+01 0.46244823442E+01
 0.56967165225E+01 0.77193742985E+01 0.11541782441E+02 0.18887713493E+02 0.32291206870E+02
 0.55725394734E+02 0.93445317954E+02 0.14623603231E+03 0.20463861584E+03 0.25211380549E+03
 0.31077700789E+03 0.47324259710E+03 0.68057393976E+03 0.68058118255E+03 0.27284799851E+03
 0.24039011201E+03 0.19852309448E+03 0.14623622828E+03 0.97030939943E+02 0.59896362157E+02
 0.35604201266E+02 0.21132242601E+02 0.12867949901E+02 0.85286168014E+01 0.61746311222E+01
 0.49090286168E+01 0.42493166956E+01 0.38896500989E+01 0.37107197651E+01 0.36164976216E+01
 0.35955016412E+01 0.36164121535E+01 0.37108022506E+01 0.38895494242E+01 0.42493591052E+01
 0.49088801542E+01 0.61749128051E+01 0.85279134786E+01 0.12868172028E+02 0.21132125818E+02
 0.35606534691E+02 0.59896414150E+02 0.97030138017E+02 0.14623559481E+03 0.19851620016E+03
 0.24039144234E+03 0.27285099139E+03 0.31077700789E+03 0.33332127623E+03 0.31077837946E+03
 0.21680009848E+03 0.18031414553E+03 0.13591969172E+03 0.93444590065E+02 0.59896362157E+02
 0.36802726075E+02 0.22389435683E+02 0.13771682815E+02 0.91628090039E+01 0.65782734880E+01
 0.51711253481E+01 0.44212093326E+01 0.40183955278E+01 0.38081890672E+01 0.37007316839E+01
 0.36562288485E+01 0.36566215187E+01 0.37004173495E+01 0.38085745459E+01 0.40179462623E+01
 0.44218020522E+01 0.51704008522E+01 0.65795119697E+01 0.91618590718E+01 0.13772913332E+02
 0.22387561579E+02 0.36804438619E+02 0.59895481739E+02 0.93445406175E+02 0.13592791394E+03
 0.18031509151E+03 0.21680166477E+03 0.24039144234E+03 0.25211380549E+03 0.25210974030E+03
 0.24039009568E+03 0.15159718148E+03 0.11712349167E+03 0.83487246890E+02 0.55727540104E+02
 0.35604201266E+02 0.22389435683E+02 0.14092412905E+02 0.95123195074E+01 0.68521744307E+01
 0.53713498075E+01 0.45653274908E+01 0.41320917017E+01 0.39037462571E+01 0.37861678300E+01
 0.37319639907E+01 0.37155427391E+01 0.37320654925E+01 0.37858425620E+01 0.39041600296E+01
 0.41315606445E+01 0.45660814701E+01 0.53699693304E+01 0.68532442802E+01 0.95106656501E+01
 0.14095115710E+02 0.22388019066E+02 0.35605231673E+02 0.55729505880E+02 0.83480046669E+02
 0.11712721369E+03 0.15159786483E+03 0.18031509151E+03 0.19851620016E+03 0.20463861584E+03
 0.19852680463E+03 0.18031885658E+03 0.93446096382E+02 0.69317975002E+02 0.48346407793E+02
 0.32290841476E+02 0.21132242601E+02 0.13771682815E+02 0.95123195074E+01 0.69492294002E+01
 0.54788273154E+01 0.46611282554E+01 0.42178379601E+01 0.39827487010E+01 0.38642142892E+01
 0.38067871769E+01 0.37856503895E+01 0.37844046149E+01 0.38080706675E+01 0.38629761782E+01
 0.39841141043E+01 0.42161934172E+01 0.46632957212E+01 0.54771410784E+01 0.69514960698E+01
 0.95092909261E+01 0.13773698261E+02 0.21132574510E+02 0.32288937918E+02 0.48355117448E+02
 0.69313969042E+02 0.93444786753E+02 0.11712721369E+03 0.13592791394E+03 0.14623559481E+03
 0.14623603231E+03 0.13591918807E+03 0.11712235058E+03 0.53754629996E+02 0.39332468033E+02
 0.27584464132E+02 0.18887351802E+02 0.12867949901E+02 0.91628090039E+01 0.68521744307E+01
 0.54788273154E+01 0.46959738727E+01 0.42636130259E+01 0.40357642744E+01 0.39223856961E+01
 0.38718166583E+01 0.38509948431E+01 0.38467860057E+01 0.38508696368E+01 0.38720751587E+01
 0.39219006948E+01 0.40364617743E+01 0.42625325485E+01 0.46965324573E+01 0.54776759327E+01
 0.68535887844E+01 0.91625643674E+01 0.12865285315E+02 0.18893248524E+02 0.27572680851E+02
 0.39341030762E+02 0.53758138538E+02 0.69313969042E+02 0.83480046669E+02 0.93445406175E+02
 0.97030138017E+02 0.93445317954E+02 0.83490472818E+02 0.69320468371E+02 0.30289716619E+02
 0.22359797538E+02 0.15822921009E+02 0.11541687985E+02 0.85286168014E+01 0.65782734880E+01
 0.53713498075E+01 0.46611282554E+01 0.42636130259E+01 0.40530644751E+01 0.39550386206E+01
 0.39138648856E+01 0.39035855790E+01 0.39011046015E+01 0.39021935515E+01 0.39024837703E+01
 0.39149417579E+01 0.39539122615E+01 0.40545045169E+01 0.42628024589E+01 0.46621856700E+01
 0.53705636077E+01 0.65775793662E+01 0.85328655813E+01 0.11534204658E+02 0.15834458929E+02
 0.22356126388E+02 0.30276992537E+02 0.39341030762E+02 0.48355117448E+02 0.55729505880E+02
 0.59895481739E+02 0.59896414150E+02 0.55725394734E+02 0.48347294284E+02 0.39331828153E+02
 0.17393403103E+02 0.13121592472E+02 0.10010265609E+02 0.77191663263E+01 0.61746311222E+01
 0.51711253481E+01 0.45653274908E+01 0.42178379601E+01 0.40357642744E+01 0.39550386206E+01
 0.39291079293E+01 0.39316486486E+01 0.39395537829E+01 0.39443713636E+01 0.39395404179E+01
 0.39317044587E+01 0.39292600252E+01 0.39547422326E+01 0.40353491186E+01 0.42183864577E+01
 0.45647201631E+01 0.51728688767E+01 0.61693384333E+01 0.77257431411E+01 0.10002616484E+02
 0.13118219107E+02 0.17409283865E+02 0.22356126388E+02 0.27572680851E+02 0.32288937918E+02
 0.35605231673E+02 0.36804438619E+02 0.35606534691E+02 0.32291206870E+02 0.27584836779E+02
 0.22360409014E+02 0.10608717437E+02 0.84790344373E+01 0.68532031040E+01 0.56970373406E+01
 0.49090286168E+01 0.44212093326E+01 0.41320917017E+01 0.39827487010E+01 0.39223856961E+01
 0.39138648856E+01 0.39316486486E+01 0.39532491907E+01 0.39681518626E+01 0.39676929929E+01
 0.39537339211E+01 0.39310155944E+01 0.39144211733E+01 0.39222367828E+01 0.39829284956E+01
 0.41318141429E+01 0.44209884953E+01 0.49127569806E+01 0.56935814328E+01 0.68567448612E+01
 0.84849474955E+01 0.10596522574E+02 0.13118219107E+02 0.15834458929E+02 0.18893248524E+02
 0.21132574510E+02 0.22388019066E+02 0.22387561579E+02 0.21132125818E+02 0.18887713493E+02
 0.15821981924E+02 0.13121186192E+02 0.71254768816E+01 0.60384998874E+01 0.52108834750E+01
 0.46241320124E+01 0.42493166956E+01 0.40183955278E+01 0.39037462571E+01 0.38642142892E+01
 0.38718166583E+01 0.39035855790E+01 0.39395537829E+01 0.39681518626E+01 0.39781273072E+01
 0.39681500158E+01 0.39395965972E+01 0.39029466775E+01 0.38711609364E+01 0.38635308840E+01
 0.39027501843E+01 0.40191661769E+01 0.42460336739E+01 0.46269970815E+01 0.52069525180E+01
 0.60349358001E+01 0.71323469408E+01 0.84849474955E+01 0.10002616484E+02 0.11534204658E+02
 0.12865285315E+02 0.13773698261E+02 0.14095115710E+02 0.13772913332E+02 0.12868172028E+02
 0.11541782441E+02 0.10010583277E+02 0.84792827415E+01 0.53313236881E+01 0.47591822083E+01
 0.43437394695E+01 0.40657040864E+01 0.38896500989E+01 0.38081890672E+01 0.37861678300E+01
 0.38067871769E+01 0.38509948431E+01 0.39011046015E+01 0.39443713636E+01 0.39676929929E+01
 0.39681500158E+01 0.39436190780E+01 0.39016760661E+01 0.38514173280E+01 0.38074803027E+01
 0.37862402027E+01 0.38074408693E+01 0.38913861197E+01 0.40645702667E+01 0.43469499705E+01
 0.47622028239E+01 0.53259485829E+01 0.60349358001E+01 0.68567448612E+01 0.77257431411E+01
 0.85328655813E+01 0.91625643674E+01 0.95092909261E+01 0.95106656501E+01 0.91618590718E+01
 0.85279134786E+01 0.77193742985E+01 0.68530768354E+01 0.60383107564E+01 0.43825148813E+01
 0.40993949827E+01 0.38957598697E+01 0.37661899774E+01 0.37107197651E+01 0.37007316839E+01
 0.37319639907E+01 0.37856503895E+01 0.38467860057E+01 0.39021935515E+01 0.39395404179E+01
 0.39537339211E+01 0.39395965972E+01 0.39016760661E+01 0.38466284964E+01 0.37855180201E+01
 0.37321366142E+01 0.37008134845E+01 0.37065779831E+01 0.37673683765E+01 0.38941421024E+01
 0.40976264293E+01 0.43859156881E+01 0.47622028239E+01 0.52069525180E+01 0.56935814328E+01
 0.61693384333E+01 0.65775793662E+01 0.68535887844E+01 0.69514960698E+01 0.68532442802E+01
 0.65795119697E+01 0.61749128051E+01 0.56967165225E+01 0.52109855014E+01 0.47593196668E+01
 0.38999137711E+01 0.37470606513E+01 0.36541865220E+01 0.36167549351E+01 0.36164976216E+01
 0.36562288485E+01 0.37155427391E+01 0.37844046149E+01 0.38508696368E+01 0.39024837703E+01
 0.39317044587E+01 0.39310155944E+01 0.39029466775E+01 0.38514173280E+01 0.37855180201E+01
 0.37163717294E+01 0.36565662332E+01 0.36182240024E+01 0.36159995538E+01 0.36562067405E+01
 0.37488450013E+01 0.38944627802E+01 0.40976264293E+01 0.43469499705E+01 0.46269970815E+01
 0.49127569806E+01 0.51728688767E+01 0.53705636077E+01 0.54776759327E+01 0.54771410784E+01
 0.53699693304E+01 0.51704008522E+01 0.49088801542E+01 0.46244823442E+01 0.43436378538E+01
 0.40993200653E+01 0.36351857030E+01 0.35713299211E+01 0.35448856423E+01 0.35516269482E+01
 0.35955016412E+01 0.36566215187E+01 0.37320654925E+01 0.38080706675E+01 0.38720751587E+01
 0.39149417579E+01 0.39292600252E+01 0.39144211733E+01 0.38711609364E+01 0.38074803027E+01
 0.37321366142E+01 0.36565662332E+01 0.35920493149E+01 0.35519370853E+01 0.35410598194E+01
 0.35707437794E+01 0.36399765661E+01 0.37488450013E+01 0.38941421024E+01 0.40645702667E+01
 0.42460336739E+01 0.44209884953E+01 0.45647201631E+01 0.46621856700E+01 0.46965324573E+01
 0.46632957212E+01 0.45660814701E+01 0.44218020522E+01 0.42493591052E+01 0.40654157185E+01
 0.38957696729E+01 0.37471532465E+01 0.35196145201E+01 0.34948925629E+01 0.35059655062E+01
 0.35520306686E+01 0.36164121535E+01 0.37004173495E+01 0.37858425620E+01 0.38629761782E+01
 0.39219006948E+01 0.39539122615E+01 0.39547422326E+01 0.39222367828E+01 0.38635308840E+01
 0.37862402027E+01 0.37008134845E+01 0.36182240024E+01 0.35519370853E+01 0.35068133215E+01
 0.34952395717E+01 0.35174536795E+01 0.35707437794E+01 0.36562067405E+01 0.37673683765E+01
 0.38913861197E+01 0.40191661769E+01 0.41318141429E+01 0.42183864577E+01 0.42628024589E+01
 0.42625325485E+01 0.42161934172E+01 0.41315606445E+01 0.40179462623E+01 0.38895494242E+01
 0.37665805373E+01 0.36541185066E+01 0.35712979206E+01 0.34749205700E+01 0.34948287901E+01
 0.35449768020E+01 0.36163438005E+01 0.37108022506E+01 0.38085745459E+01 0.39041600296E+01
 0.39841141043E+01 0.40364617743E+01 0.40545045169E+01 0.40353491186E+01 0.39829284956E+01
 0.39027501843E+01 0.38074408693E+01 0.37065779831E+01 0.36159995538E+01 0.35410598194E+01
 0.34952395717E+01 0.34807520023E+01 0.34952395717E+01 0.35410598194E+01 0.36159995538E+01
 0.37065779831E+01 0.38074408693E+01 0.39027501843E+01 0.39829284956E+01 0.40353491186E+01
 0.40545045169E+01 0.40364617743E+01 0.39841141043E+01 0.39041600296E+01 0.38085745459E+01
 0.37108022506E+01 0.36163438005E+01 0.35449768020E+01 0.34948287901E+01 0.35196145201E+01
 0.35712979206E+01 0.36541185066E+01 0.37665805373E+01 0.38895494242E+01 0.40179462623E+01
 0.41315606445E+01 0.42161934172E+01 0.42625325485E+01 0.42628024589E+01 0.42183864577E+01
 0.41318141429E+01 0.40191661769E+01 0.38913861197E+01 0.37673683765E+01 0.36562067405E+01
 0.35707437794E+01 0.35174536795E+01 0.34952395717E+01 0.35068133215E+01 0.35519370853E+01
 0.36182240024E+01 0.37008134845E+01 0.37862402027E+01 0.38635308840E+01 0.39222367828E+01
 0.39547422326E+01 0.39539122615E+01 0.39219006948E+01 0.38629761782E+01 0.37858425620E+01
 0.37004173495E+01 0.36164121535E+01 0.35520306686E+01 0.35059655062E+01 0.34948925629E+01
 0.36351857030E+01 0.37471532465E+01 0.38957696729E+01 0.40654157185E+01 0.42493591052E+01
 0.44218020522E+01 0.45660814701E+01 0.46632957212E+01 0.46965324573E+01 0.46621856700E+01
 0.45647201631E+01 0.44209884953E+01 0.42460336739E+01 0.40645702667E+01 0.38941421024E+01
 0.37488450013E+01 0.36399765661E+01 0.35707437794E+01 0.35410598194E+01 0.35519370853E+01
 0.35920493149E+01 0.36565662332E+01 0.37321366142E+01 0.38074803027E+01 0.38711609364E+01
 0.39144211733E+01 0.39292600252E+01 0.39149417579E+01 0.38720751587E+01 0.38080706675E+01
 0.37320654925E+01 0.36566215187E+01 0.35955016412E+01 0.35516269482E+01 0.35448856423E+01
 0.35713299211E+01 0.38999137711E+01 0.40993200653E+01 0.43436378538E+01 0.46244823442E+01
 0.49088801542E+01 0.51704008522E+01 0.53699693304E+01 0.54771410784E+01 0.54776759327E+01
 0.53705636077E+01 0.51728688767E+01 0.49127569806E+01 0.46269970815E+01 0.43469499705E+01
 0.40976264293E+01 0.38944627802E+01 0.37488450013E+01 0.36562067405E+01 0.36159995538E+01
 0.36182240024E+01 0.36565662332E+01 0.37163717294E+01 0.37855180201E+01 0.38514173280E+01
 0.39029466775E+01 0.39310155944E+01 0.39317044587E+01 0.39024837703E+01 0.38508696368E+01
 0.37844046149E+01 0.37155427391E+01 0.36562288485E+01 0.36164976216E+01 0.36167549351E+01
 0.36541865220E+01 0.37470606513E+01 0.43825148813E+01 0.47593196668E+01 0.52109855014E+01
 0.56967165225E+01 0.61749128051E+01 0.65795119697E+01 0.68532442802E+01 0.69514960698E+01
 0.68535887844E+01 0.65775793662E+01 0.61693384333E+01 0.56935814328E+01 0.52069525180E+01
 0.47622028239E+01 0.43859156881E+01 0.40976264293E+01 0.38941421024E+01 0.37673683765E+01
 0.37065779831E+01 0.37008134845E+01 0.37321366142E+01 0.37855180201E+01 0.38466284964E+01
 0.39016760661E+01 0.39395965972E+01 0.39537339211E+01 0.39395404179E+01 0.39021935515E+01
 0.38467860057E+01 0.37856503895E+01 0.37319639907E+01 0.37007316839E+01 0.37107197651E+01
 0.37661899774E+01 0.38957598697E+01 0.40993949827E+01 0.53313236881E+01 0.60383107564E+01
 0.68530768354E+01 0.77193742985E+01 0.85279134786E+01 0.91618590718E+01 0.95106656501E+01
 0.95092909261E+01 0.91625643674E+01 0.85328655813E+01 0.77257431411E+01 0.68567448612E+01
 0.60349358001E+01 0.53259485829E+01 0.47622028239E+01 0.43469499705E+01 0.40645702667E+01
 0.38913861197E+01 0.38074408693E+01 0.37862402027E+01 0.38074803027E+01 0.38514173280E+01
 0.39016760661E+01 0.39436190780E+01 0.39681500158E+01 0.39676929929E+01 0.39443713636E+01
 0.39011046015E+01 0.38509948431E+01 0.38067871769E+01 0.37861678300E+01 0.38081890672E+01
 0.38896500989E+01 0.40657040864E+01 0.43437394695E+01 0.47591822083E+01 0.71254768816E+01
 0.84792827415E+01 0.10010583277E+02 0.11541782441E+02 0.12868172028E+02 0.13772913332E+02
 0.14095115710E+02 0.13773698261E+02 0.12865285315E+02 0.11534204658E+02 0.10002616484E+02
 0.84849474955E+01 0.71323469408E+01 0.60349358001E+01 0.52069525180E+01 0.46269970815E+01
 0.42460336739E+01 0.40191661769E+01 0.39027501843E+01 0.38635308840E+01 0.38711609364E+01
 0.39029466775E+01 0.39395965972E+01 0.39681500158E+01 0.39781273072E+01 0.39681518626E+01
 0.39395537829E+01 0.39035855790E+01 0.38718166583E+01 0.38642142892E+01 0.39037462571E+01
 0.40183955278E+01 0.42493166956E+01 0.46241320124E+01 0.52108834750E+01 0.60384998874E+01
 0.10608717437E+02 0.13121186192E+02 0.15821981924E+02 0.18887713493E+02 0.21132125818E+02
 0.22387561579E+02 0.22388019066E+02 0.21132574510E+02 0.18893248524E+02 0.15834458929E+02
 0.13118219107E+02 0.10596522574E+02 0.84849474955E+01 0.68567448612E+01 0.56935814328E+01
 0.49127569806E+01 0.44209884953E+01 0.41318141429E+01 0.39829284956E+01 0.39222367828E+01
 0.39144211733E+01 0.39310155944E+01 0.39537339211E+01 0.39676929929E+01 0.39681518626E+01
 0.39532491907E+01 0.39316486486E+01 0.39138648856E+01 0.39223856961E+01 0.39827487010E+01
 0.41320917017E+01 0.44212093326E+01 0.49090286168E+01 0.56970373406E+01 0.68532031040E+01
 0.84790344373E+01 0.17393403103E+02 0.22360409014E+02 0.27584836779E+02 0.32291206870E+02
 0.35606534691E+02 0.36804438619E+02 0.35605231673E+02 0.32288937918E+02 0.27572680851E+02
 0.22356126388E+02 0.17409283865E+02 0.13118219107E+02 0.10002616484E+02 0.77257431411E+01
 0.61693384333E+01 0.51728688767E+01 0.45647201631E+01 0.42183864577E+01 0.40353491186E+01
 0.39547422326E+01 0.39292600252E+01 0.39317044587E+01 0.39395404179E+01 0.39443713636E+01
 0.39395537829E+01 0.39316486486E+01 0.39291079293E+01 0.39550386206E+01 0.40357642744E+01
 0.42178379601E+01 0.45653274908E+01 0.51711253481E+01 0.61746311222E+01 0.77191663263E+01
 0.10010265609E+02 0.13121592472E+02 0.30289716619E+02 0.39331828153E+02 0.48347294284E+02
 0.55725394734E+02 0.59896414150E+02 0.59895481739E+02 0.55729505880E+02 0.48355117448E+02
 0.39341030762E+02 0.30276992537E+02 0.22356126388E+02 0.15834458929E+02 0.11534204658E+02
 0.85328655813E+01 0.65775793662E+01 0.53705636077E+01 0.46621856700E+01 0.42628024589E+01
 0.40545045169E+01 0.39539122615E+01 0.39149417579E+01 0.39024837703E+01 0.39021935515E+01
 0.39011046015E+01 0.39035855790E+01 0.39138648856E+01 0.39550386206E+01 0.40530644751E+01
 0.42636130259E+01 0.46611282554E+01 0.53713498075E+01 0.65782734880E+01 0.85286168014E+01
 0.11541687985E+02 0.15822921009E+02 0.22359797538E+02 0.53754629996E+02 0.69320468371E+02
 0.83490472818E+02 0.93445317954E+02 0.97030138017E+02 0.93445406175E+02 0.83480046669E+02
 0.69313969042E+02 0.53758138538E+02 0.39341030762E+02 0.27572680851E+02 0.18893248524E+02
 0.12865285315E+02 0.91625643674E+01 0.68535887844E+01 0.54776759327E+01 0.46965324573E+01
 0.42625325485E+01 0.40364617743E+01 0.39219006948E+01 0.38720751587E+01 0.38508696368E+01
 0.38467860057E+01 0.38509948431E+01 0.38718166583E+01 0.39223856961E+01 0.40357642744E+01
 0.42636130259E+01 0.46959738727E+01 0.54788273154E+01 0.68521744307E+01 0.91628090039E+01
 0.12867949901E+02 0.18887351802E+02 0.27584464132E+02 0.39332468033E+02 0.93446096382E+02
 0.11712235058E+03 0.13591918807E+03 0.14623603231E+03 0.14623559481E+03 0.13592791394E+03
 0.11712721369E+03 0.93444786753E+02 0.69313969042E+02 0.48355117448E+02 0.32288937918E+02
 0.21132574510E+02 0.13773698261E+02 0.95092909261E+01 0.69514960698E+01 0.54771410784E+01
 0.46632957212E+01 0.42161934172E+01 0.39841141043E+01 0.38629761782E+01 0.38080706675E+01
 0.37844046149E+01 0.37856503895E+01 0.38067871769E+01 0.38642142892E+01 0.39827487010E+01
 0.42178379601E+01 0.46611282554E+01 0.54788273154E+01 0.69492294002E+01 0.95123195074E+01
 0.13771682815E+02 0.21132242601E+02 0.32290841476E+02 0.48346407793E+02 0.69317975002E+02
 0.15159718148E+03 0.18031885658E+03 0.19852680463E+03 0.20463861584E+03 0.19851620016E+03
 0.18031509151E+03 0.15159786483E+03 0.11712721369E+03 0.83480046669E+02 0.55729505880E+02
 0.35605231673E+02 0.22388019066E+02 0.14095115710E+02 0.95106656501E+01 0.68532442802E+01
 0.53699693304E+01 0.45660814701E+01 0.41315606445E+01 0.39041600296E+01 0.37858425620E+01
 0.37320654925E+01 0.37155427391E+01 0.37319639907E+01 0.37861678300E+01 0.39037462571E+01
 0.41320917017E+01 0.45653274908E+01 0.53713498075E+01 0.68521744307E+01 0.95123195074E+01
 0.14092412905E+02 0.22389435683E+02 0.35604201266E+02 0.55727540104E+02 0.83487246890E+02
 0.11712349167E+03 0.21680009848E+03 0.24039009568E+03 0.25210974030E+03 0.25211380549E+03
 0.24039144234E+03 0.21680166477E+03 0.18031509151E+03 0.13592791394E+03 0.93445406175E+02
 0.59895481739E+02 0.36804438619E+02 0.22387561579E+02 0.13772913332E+02 0.91618590718E+01
 0.65795119697E+01 0.51704008522E+01 0.44218020522E+01 0.40179462623E+01 0.38085745459E+01
 0.37004173495E+01 0.36566215187E+01 0.36562288485E+01 0.37007316839E+01 0.38081890672E+01
 0.40183955278E+01 0.44212093326E+01 0.51711253481E+01 0.65782734880E+01 0.91628090039E+01
 0.13771682815E+02 0.22389435683E+02 0.36802726075E+02 0.59896362157E+02 0.93444590065E+02
 0.13591969172E+03 0.18031414553E+03 0.27284799851E+03 0.31077837946E+03 0.33332127623E+03
 0.31077700789E+03 0.27285099139E+03 0.24039144234E+03 0.19851620016E+03 0.14623559481E+03
 0.97030138017E+02 0.59896414150E+02 0.35606534691E+02 0.21132125818E+02 0.12868172028E+02
 0.85279134786E+01 0.61749128051E+01 0.49088801542E+01 0.42493591052E+01 0.38895494242E+01
 0.37108022506E+01 0.36164121535E+01 0.35955016412E+01 0.36164976216E+01 0.37107197651E+01
 0.38896500989E+01 0.42493166956E+01 0.49090286168E+01 0.61746311222E+01 0.85286168014E+01
 0.12867949901E+02 0.21132242601E+02 0.35604201266E+02 0.59896362157E+02 0.97030939943E+02
 0.14623622828E+03 0.19852309448E+03 0.24039011201E+03 0.47324688316E+03 0.68058118255E+03
 0.68057393976E+03 0.47324259710E+03 0.31077700789E+03 0.25211380549E+03 0.20463861584E+03
 0.14623603231E+03 0.93445317954E+02 0.55725394734E+02 0.32291206870E+02 0.18887713493E+02
 0.11541782441E+02 0.77193742985E+01 0.56967165225E+01 0.46244823442E+01 0.40654157185E+01
 0.37665805373E+01 0.36163438005E+01 0.35520306686E+01 0.35516269482E+01 0.36167549351E+01
 0.37661899774E+01 0.40657040864E+01 0.46241320124E+01 0.56970373406E+01 0.77191663263E+01
 0.11541687985E+02 0.18887351802E+02 0.32290841476E+02 0.55727540104E+02 0.93444590065E+02
 0.14623622828E+03 0.20463521364E+03 0.25211076888E+03 0.31077521122E+03 0.11768032999E+04
 0.12249199188E+04 0.11768016878E+04 0.68057393976E+03 0.33332127623E+03 0.25210974030E+03
 0.19852680463E+03 0.13591918807E+03 0.83490472818E+02 0.48347294284E+02 0.27584836779E+02
 0.15821981924E+02 0.10010583277E+02 0.68530768354E+01 0.52109855014E+01 0.43436378538E+01
 0.38957696729E+01 0.36541185066E+01 0.35449768020E+01 0.35059655062E+01 0.35448856423E+01
 0.36541865220E+01 0.38957598697E+01 0.43437394695E+01 0.52108834750E+01 0.68532031040E+01
 0.10010265609E+02 0.15822921009E+02 0.27584464132E+02 0.48346407793E+02 0.83487246890E+02
 0.13591969172E+03 0.19852309448E+03 0.25211076888E+03 0.33332116358E+03 0.68057304738E+03
 0.10128038473E+04 0.10128003257E+04 0.12249199188E+04 0.68058118255E+03 0.31077837946E+03
 0.24039009568E+03 0.18031885658E+03 0.11712235058E+03 0.69320468371E+02 0.39331828153E+02
 0.22360409014E+02 0.13121186192E+02 0.84792827415E+01 0.60383107564E+01 0.47593196668E+01
 0.40993200653E+01 0.37471532465E+01 0.35712979206E+01 0.34948287901E+01 0.34948925629E+01
 0.35713299211E+01 0.37470606513E+01 0.40993949827E+01 0.47591822083E+01 0.60384998874E+01
 0.84790344373E+01 0.13121592472E+02 0.22359797538E+02 0.39332468033E+02 0.69317975002E+02
 0.11712349167E+03 0.18031414553E+03 0.24039011201E+03 0.31077521122E+03 0.68057304738E+03
 0.12249292036E+04 0.10128038473E+04 0.12249292036E+04 0.68057304738E+03 0.31077521122E+03
 0.24039011201E+03 0.18031414553E+03 0.11712349167E+03 0.69317975002E+02 0.39332468033E+02
 0.22359797538E+02 0.13121592472E+02 0.84790344373E+01 0.60384998874E+01 0.47591822083E+01
 0.40993949827E+01 0.37470606513E+01 0.35713299211E+01 0.34948925629E+01 0.34948287901E+01
 0.35712979206E+01 0.37471532465E+01 0.40993200653E+01 0.47593196668E+01 0.60383107564E+01
 0.84792827415E+01 0.13121186192E+02 0.22360409014E+02 0.39331828153E+02 0.69320468371E+02
 0.11712235058E+03 0.18031885658E+03 0.24039009568E+03 0.31077837946E+03 0.68058118255E+03
 0.12249199188E+04 0.10128003257E+04 0.12249292036E+04 0.83404938811E+03 0.36503178135E+03
 0.25831121546E+03 0.20463612254E+03 0.14099937229E+03 0.86670579796E+02 0.50065922702E+02
 0.28434992880E+02 0.16190670948E+02 0.10177933645E+02 0.69097710341E+01 0.52129901129E+01
 0.43137270895E+01 0.38497809721E+01 0.35966474616E+01 0.34829248779E+01 0.34411242478E+01
 0.34829772841E+01 0.35966570702E+01 0.38496715941E+01 0.43137905933E+01 0.52128778362E+01
 0.69099125828E+01 0.10177730756E+02 0.16191404356E+02 0.28434823645E+02 0.50063125120E+02
 0.86668388204E+02 0.14099433660E+03 0.20463695263E+03 0.25830322556E+03 0.36503340754E+03
 0.83404940383E+03 0.12249270500E+04 0.10299084519E+04 0.68057304738E+03 0.36503178135E+03
 0.26507840529E+03 0.21678641372E+03 0.15710906763E+03 0.10074089574E+03 0.59871075894E+02
 0.34423067673E+02 0.19922983382E+02 0.11990112176E+02 0.78993997629E+01 0.57370314415E+01
 0.45873709235E+01 0.39871560827E+01 0.36615893276E+01 0.34976180505E+01 0.34253244257E+01
 0.34256493609E+01 0.34972840191E+01 0.36619077958E+01 0.39869339223E+01 0.45876582312E+01
 0.57367743808E+01 0.78996299855E+01 0.11989819277E+02 0.19923006464E+02 0.34423329378E+02
 0.59871287151E+02 0.10074267465E+03 0.15710582248E+03 0.21678802590E+03 0.26507491266E+03
 0.36502631394E+03 0.68058182037E+03 0.10128498857E+04 0.10128435345E+04 0.31077521122E+03
 0.25831121546E+03 0.21678641372E+03 0.16274882476E+03 0.10862506741E+03 0.66799883855E+02
 0.39309436526E+02 0.22996251277E+02 0.13695405088E+02 0.88983150471E+01 0.62895144849E+01
 0.48910534088E+01 0.41531696407E+01 0.37501859710E+01 0.35413900151E+01 0.34337563223E+01
 0.34056875809E+01 0.34337027173E+01 0.35414077956E+01 0.37501843324E+01 0.41530724772E+01
 0.48910987404E+01 0.62893958262E+01 0.88987338368E+01 0.13695290772E+02 0.22994673847E+02
 0.39309184715E+02 0.66796905484E+02 0.10862596539E+03 0.16274319199E+03 0.21678848450E+03
 0.25831270874E+03 0.31077374825E+03 0.40992900876E+03 0.47324300208E+03 0.40992878957E+03
 0.24039011201E+03 0.20463612254E+03 0.15710906763E+03 0.10862506741E+03 0.69300065354E+02
 0.42068720291E+02 0.25136585765E+02 0.15039513777E+02 0.97663133379E+01 0.68034732804E+01
 0.51924173316E+01 0.43263519389E+01 0.38544794271E+01 0.36005570750E+01 0.34661303551E+01
 0.34092985114E+01 0.34089359449E+01 0.34665800107E+01 0.36001583941E+01 0.38548487582E+01
 0.43260754625E+01 0.51927623986E+01 0.68029921753E+01 0.97665833184E+01 0.15039976248E+02
 0.25136347931E+02 0.42070654152E+02 0.69299278019E+02 0.10863027601E+03 0.15710637241E+03
 0.20463411899E+03 0.24039289491E+03 0.26507718706E+03 0.28232683494E+03 0.28232197041E+03
 0.26507590854E+03 0.18031414553E+03 0.14099937229E+03 0.10074089574E+03 0.66799883855E+02
 0.42068720291E+02 0.25911923333E+02 0.15785424351E+02 0.10361945681E+02 0.72019117818E+01
 0.54513933390E+01 0.44844022383E+01 0.39598917843E+01 0.36659923537E+01 0.35123635730E+01
 0.34313110732E+01 0.34111662539E+01 0.34313148082E+01 0.35122365943E+01 0.36661023710E+01
 0.39597823049E+01 0.44844601972E+01 0.54513790501E+01 0.72023030299E+01 0.10360646345E+02
 0.15785377337E+02 0.25908466368E+02 0.42071002919E+02 0.66794034625E+02 0.10074090489E+03
 0.14100015515E+03 0.18031165622E+03 0.21073948337E+03 0.22873081126E+03 0.23459355215E+03
 0.22872980608E+03 0.21074494166E+03 0.11712349167E+03 0.86670579796E+02 0.59871075894E+02
 0.39309436526E+02 0.25136585765E+02 0.15785424351E+02 0.10569206071E+02 0.74236715562E+01
 0.56232036908E+01 0.46099420638E+01 0.40458455156E+01 0.37314897753E+01 0.35583596315E+01
 0.34670946758E+01 0.34276195041E+01 0.34278043801E+01 0.34669421763E+01 0.35585744128E+01
 0.37313667562E+01 0.40458776320E+01 0.46099117482E+01 0.56228106770E+01 0.74252051670E+01
 0.10568350842E+02 0.15788717322E+02 0.25133450637E+02 0.39312590613E+02 0.59871419762E+02
 0.86664715348E+02 0.11712678029E+03 0.14623862583E+03 0.16851654043E+03 0.18032953331E+03
 0.18033304501E+03 0.16851449216E+03 0.14623519536E+03 0.69317975002E+02 0.50065922702E+02
 0.34423067673E+02 0.22996251277E+02 0.15039513777E+02 0.10361945681E+02 0.74236715562E+01
 0.56864765708E+01 0.46757571611E+01 0.41058537050E+01 0.37799116443E+01 0.36016893543E+01
 0.35014927481E+01 0.34553836181E+01 0.34390934328E+01 0.34552403855E+01 0.35017818893E+01
 0.36011562244E+01 0.37805492575E+01 0.41052100164E+01 0.46770043616E+01 0.56840187636E+01
 0.74256160070E+01 0.10357133943E+02 0.15042637190E+02 0.22992249123E+02 0.34421931519E+02
 0.50071829268E+02 0.69311304921E+02 0.90002943902E+02 0.10865985045E+03 0.12161505818E+03
 0.12623828704E+03 0.12161171982E+03 0.10865617878E+03 0.90006183659E+02 0.39332468033E+02
 0.28434992880E+02 0.19922983382E+02 0.13695405088E+02 0.97663133379E+01 0.72019117818E+01
 0.56232036908E+01 0.46757571611E+01 0.41264248415E+01 0.38075974832E+01 0.36300273690E+01
 0.35306292231E+01 0.34815310050E+01 0.34589262645E+01 0.34603512766E+01 0.34800696454E+01
 0.35321281755E+01 0.36285489392E+01 0.38091229374E+01 0.41242273193E+01 0.46789288476E+01
 0.56207834455E+01 0.72069727131E+01 0.97634432175E+01 0.13696906407E+02 0.19926542255E+02
 0.28422392664E+02 0.39341835636E+02 0.51895450873E+02 0.64430127385E+02 0.74671473524E+02
 0.80453092960E+02 0.80454240860E+02 0.74679943562E+02 0.64432287460E+02 0.51889373152E+02
 0.22359797538E+02 0.16190670948E+02 0.11990112176E+02 0.88983150471E+01 0.68034732804E+01
 0.54513933390E+01 0.46099420638E+01 0.41058537050E+01 0.38075974832E+01 0.36396720934E+01