    2    2    1    1
  0.2657030E+02  0.4220013E-09  0.4220013E-09  0.4220013E-09  0.5000000E-15
  1.000000000000000E-004
  CAR 
 unknown system                          
     23    300    105
