    2    2    1    1
  0.2234237E+02  0.3983132E-09  0.3983132E-09  0.3983132E-09  0.5000000E-15
  1.000000000000000E-004
  CAR 
 unknown system                          
      8    100     56
 
  0.5000000E+00  0.5000000E+00  0.5000000E+00  0.1000000E-01
    1       -6.894953   1.000000
    2       -3.928417   1.000000
    3        2.084157   1.000000
    4        2.084157   1.000000
    5        4.049187  -0.000000
    6        7.425481   0.000000
    7        7.425481   0.000000
    8       10.914931   0.000000
    9       14.295120   0.000000
   10       14.851310   0.000000
   11       14.926416   0.000000
   12       14.926416   0.000000
   13       16.041903   0.000000
   14       16.041903   0.000000
   15       22.576873   0.000000
   16       23.840696   0.000000
   17       25.304000   0.000000
   18       25.304000   0.000000
   19       25.469527   0.000000
   20       25.469527   0.000000
   21       28.784784   0.000000
   22       29.970379   0.000000
   23       30.249835   0.000000
   24       30.249835   0.000000
   25       30.769320   0.000000
   26       30.769321   0.000000
   27       31.674780   0.000000
   28       35.102409   0.000000
   29       35.102410   0.000000
   30       35.296041   0.000000
   31       35.296041   0.000000
   32       36.114543   0.000000
   33       37.240037   0.000000
   34       37.373853   0.000000
   35       42.491612   0.000000
   36       42.491849   0.000000
   37       42.747517   0.000000
   38       43.692880   0.000000
   39       43.692990   0.000000
   40       44.699674   0.000000
   41       48.218550   0.000000
   42       48.248719   0.000000
   43       50.453046   0.000000
   44       50.675523   0.000000
   45       51.232620   0.000000
   46       54.296500   0.000000
   47       54.486599   0.000000
   48       56.843522   0.000000
   49       58.818191   0.000000
   50       58.978588   0.000000
   51       59.008937   0.000000
   52       62.929632   0.000000
   53       64.060005   0.000000
   54       64.339435   0.000000
   55       68.974812   0.000000
   56       69.207666   0.000000
 
  0.4897959E+00  0.4897959E+00  0.4897959E+00  0.1000000E-01
    1       -6.899851   1.000000
    2       -3.920890   1.000000
    3        2.085089   1.000000
    4        2.085089   1.000000
    5        4.050004  -0.000000
    6        7.425771   0.000000
    7        7.425771   0.000000
    8       10.916034   0.000000
    9       14.225849   0.000000
   10       14.890957   0.000000
   11       14.890957   0.000000
   12       14.918845   0.000000
   13       16.081267   0.000000
   14       16.081267   0.000000
   15       22.508140   0.000000
   16       23.914544   0.000000
   17       25.077729   0.000000
   18       25.077729   0.000000
   19       25.697737   0.000000
   20       25.697737   0.000000
   21       28.704138   0.000000
   22       30.051744   0.000000
   23       30.248528   0.000000
   24       30.248528   0.000000
   25       30.767556   0.000000
   26       30.767556   0.000000
   27       31.672357   0.000000
   28       35.104363   0.000000
   29       35.104364   0.000000
   30       35.302775   0.000000
   31       35.302775   0.000000
   32       36.106616   0.000000
   33       37.245347   0.000000
   34       37.386428   0.000000
   35       42.491611   0.000000
   36       42.491760   0.000000
   37       42.748690   0.000000
   38       43.692198   0.000000
   39       43.692218   0.000000
   40       44.700135   0.000000
   41       48.037389   0.000000
   42       48.048187   0.000000
   43       50.253309   0.000000
   44       50.415256   0.000000
   45       50.834814   0.000000
   46       54.207340   0.000000
   47       54.326680   0.000000
   48       55.930470   0.000000
   49       57.858547   0.000000
   50       58.679725   0.000000
   51       58.687219   0.000000
   52       62.575699   0.000000
   53       63.915958   0.000000
   54       64.091686   0.000000
   55       68.364243   0.000000
   56       68.794944   0.000000
 
  0.4795918E+00  0.4795918E+00  0.4795918E+00  0.1000000E-01
    1       -6.914388   1.000000
    2       -3.898464   1.000000
    3        2.087877   1.000000
    4        2.087877   1.000000
    5        4.052451  -0.000000
    6        7.426622   0.000000
    7        7.426622   0.000000
    8       10.919313   0.000000
    9       14.072161   0.000000
   10       14.796573   0.000000
   11       14.796573   0.000000
   12       15.067150   0.000000
   13       16.187195   0.000000
   14       16.187195   0.000000
   15       22.336631   0.000000
   16       24.101269   0.000000
   17       24.787442   0.000000
   18       24.787442   0.000000
   19       25.993130   0.000000
   20       25.993130   0.000000
   21       28.506927   0.000000
   22       30.244493   0.000000
   23       30.244493   0.000000
   24       30.251062   0.000000
   25       30.762048   0.000000
   26       30.762048   0.000000
   27       31.665102   0.000000
   28       35.110485   0.000000
   29       35.110488   0.000000
   30       35.322461   0.000000
   31       35.322467   0.000000
   32       36.084030   0.000000
   33       37.261248   0.000000
   34       37.423056   0.000000
   35       42.493058   0.000000
   36       42.498682   0.000000
   37       42.750276   0.000000
   38       43.691011   0.000000
   39       43.691104   0.000000
   40       44.697554   0.000000
   41       47.790046   0.000000
   42       47.797534   0.000000
   43       49.926716   0.000000
   44       49.954138   0.000000
   45       50.186305   0.000000
   46       52.857705   0.000000
   47       53.516484   0.000000
   48       54.519946   0.000000
   49       56.685672   0.000000
   50       58.401090   0.000000
   51       59.413037   0.000000
   52       59.675275   0.000000
   53       62.964517   0.000000
   54       64.060945   0.000000
   55       66.659924   0.000000
   56       66.844498   0.000000
 
  0.4693878E+00  0.4693878E+00  0.4693878E+00  0.1000000E-01
    1       -6.938112   1.000000
    2       -3.861586   1.000000
    3        2.092523   1.000000
    4        2.092523   1.000000
    5        4.056530  -0.000000
    6        7.428003   0.000000
    7        7.428003   0.000000
    8       10.924688   0.000000
    9       13.888600   0.000000
   10       14.665794   0.000000
   11       14.665794   0.000000
   12       15.241218   0.000000
   13       16.337242   0.000000
   14       16.337242   0.000000
   15       22.115170   0.000000
   16       24.348183   0.000000
   17       24.495643   0.000000
   18       24.495643   0.000000
   19       26.293242   0.000000
   20       26.293242   0.000000
   21       28.255275   0.000000
   22       30.237946   0.000000
   23       30.238002   0.000000
   24       30.506230   0.000000
   25       30.753085   0.000000
   26       30.753117   0.000000
   27       31.653302   0.000000
   28       35.121957   0.000000
   29       35.123866   0.000000
   30       35.354229   0.000000
   31       35.354822   0.000000
   32       36.050030   0.000000
   33       37.295881   0.000000
   34       37.481226   0.000000
   35       42.602412   0.000000
   36       42.691040   0.000000
   37       43.024326   0.000000
   38       43.926371   0.000000
   39       44.078917   0.000000
   40       44.267626   0.000000
   41       47.502243   0.000000
   42       47.851442   0.000000
   43       49.989816   0.000000
   44       51.058154   0.000000
   45       52.375773   0.000000
   46       52.955499   0.000000
   47       53.683508   0.000000
   48       55.971691   0.000000
   49       58.551579   0.000000
   50       59.080700   0.000000
   51       60.047783   0.000000
   52       60.181417   0.000000
   53       62.314404   0.000000
   54       64.012224   0.000000
   55       64.467475   0.000000
   56       69.934217   0.000000
 
  0.4591837E+00  0.4591837E+00  0.4591837E+00  0.1000000E-01
    1       -6.970335   1.000000
    2       -3.810947   1.000000
    3        2.099023   1.000000
    4        2.099023   1.000000
    5        4.062234  -0.000000
    6        7.429857   0.000000
    7        7.429857   0.000000
    8       10.932013   0.000000
    9       13.694113   0.000000
   10       14.515786   0.000000
   11       14.515786   0.000000
   12       15.421289   0.000000
   13       16.514283   0.000000
   14       16.514283   0.000000
   15       21.874708   0.000000
   16       24.205212   0.000000
   17       24.205212   0.000000
   18       24.624314   0.000000
   19       26.594877   0.000000
   20       26.594877   0.000000
   21       27.981597   0.000000
   22       30.229143   0.000000
   23       30.229143   0.000000
   24       30.740966   0.000000
   25       30.740966   0.000000
   26       30.785007   0.000000
   27       31.636551   0.000000
   28       35.138616   0.000000
   29       35.138616   0.000000
   30       35.396656   0.000000
   31       35.396656   0.000000
   32       36.008870   0.000000
   33       37.324217   0.000000
   34       37.556383   0.000000
   35       42.490473   0.000000
   36       42.490539   0.000000
   37       42.765663   0.000000
   38       43.677447   0.000000
   39       43.677536   0.000000
   40       44.708674   0.000000
   41       47.194331   0.000000
   42       47.194924   0.000000
   43       49.663679   0.000000
   44       50.448975   0.000000
   45       50.462189   0.000000
   46       53.413572   0.000000
   47       53.648959   0.000000
   48       54.914756   0.000000
   49       55.918397   0.000000
   50       57.606882   0.000000
   51       57.768289   0.000000
   52       57.935938   0.000000
   53       61.349269   0.000000
   54       63.796520   0.000000
   55       66.549115   0.000000
   56       66.818645   0.000000
 
  0.4489796E+00  0.4489796E+00  0.4489796E+00  0.1000000E-01
    1       -7.010198   1.000000
    2       -3.747413   1.000000
    3        2.107373   1.000000
    4        2.107373   1.000000
    5        4.069561  -0.000000
    6        7.432101   0.000000
    7        7.432101   0.000000
    8       10.941065   0.000000
    9       13.495423   0.000000
   10       14.356568   0.000000
   11       14.356568   0.000000
   12       15.599436   0.000000
   13       16.708351   0.000000
   14       16.708351   0.000000
   15       21.630684   0.000000
   16       23.916860   0.000000
   17       23.916860   0.000000
   18       24.913691   0.000000
   19       26.896825   0.000000
   20       26.896825   0.000000
   21       27.701353   0.000000
   22       30.218477   0.000000
   23       30.218477   0.000000
   24       30.726217   0.000000
   25       30.726217   0.000000
   26       31.072688   0.000000
   27       31.615615   0.000000
   28       35.162188   0.000000
   29       35.162188   0.000000
   30       35.448914   0.000000
   31       35.448914   0.000000
   32       35.965126   0.000000
   33       37.370991   0.000000
   34       37.646057   0.000000
   35       42.489978   0.000000
   36       42.490032   0.000000
   37       42.775921   0.000000
   38       43.664772   0.000000
   39       43.664822   0.000000
   40       44.713671   0.000000
   41       46.868122   0.000000
   42       46.868306   0.000000
   43       49.399287   0.000000
   44       50.238770   0.000000
   45       50.527832   0.000000
   46       52.777834   0.000000
   47       53.006221   0.000000
   48       54.818976   0.000000
   49       56.219936   0.000000
   50       56.591450   0.000000
   51       57.541028   0.000000
   52       58.456888   0.000000
   53       61.374897   0.000000
   54       62.979506   0.000000
   55       63.231841   0.000000
   56       66.469712   0.000000
 
  0.4387755E+00  0.4387755E+00  0.4387755E+00  0.1000000E-01
    1       -7.056748   1.000000
    2       -3.671945   1.000000
    3        2.117567   1.000000
    4        2.117567   1.000000
    5        4.078503  -0.000000
    6        7.434632   0.000000
    7        7.434632   0.000000
    8       10.951513   0.000000
    9       13.295606   0.000000
   10       14.193718   0.000000
   11       14.193718   0.000000
   12       15.770934   0.000000
   13       16.913931   0.000000
   14       16.913931   0.000000
   15       21.391866   0.000000
   16       23.630919   0.000000
   17       23.630919   0.000000
   18       25.205367   0.000000
   19       27.197997   0.000000
   20       27.197997   0.000000
   21       27.424925   0.000000
   22       30.206454   0.000000
   23       30.206455   0.000000
   24       30.709542   0.000000
   25       30.709543   0.000000
   26       31.361332   0.000000
   27       31.590561   0.000000
   28       35.192761   0.000000
   29       35.192842   0.000000
   30       35.509995   0.000000
   31       35.510070   0.000000
   32       35.923259   0.000000
   33       37.427925   0.000000
   34       37.747084   0.000000
   35       42.497208   0.000000
   36       42.542037   0.000000
   37       42.789315   0.000000
   38       43.645111   0.000000
   39       43.647635   0.000000
   40       44.721095   0.000000
   41       46.539572   0.000000
   42       46.553982   0.000000
   43       49.163993   0.000000
   44       50.633452   0.000000
   45       51.014858   0.000000
   46       53.049939   0.000000
   47       53.354271   0.000000
   48       54.710932   0.000000
   49       55.415155   0.000000
   50       56.441136   0.000000
   51       57.611769   0.000000
   52       58.728050   0.000000
   53       59.505528   0.000000
   54       62.994650   0.000000
   55       64.398779   0.000000
   56       66.613304   0.000000
 
  0.4285714E+00  0.4285714E+00  0.4285714E+00  0.1000000E-01
    1       -7.109002   1.000000
    2       -3.585537   1.000000
    3        2.129599   1.000000
    4        2.129599   1.000000
    5        4.089054  -0.000000
    6        7.437320   0.000000
    7        7.437320   0.000000
    8       10.962877   0.000000
    9       13.096516   0.000000
   10       14.030464   0.000000
   11       14.030464   0.000000
   12       15.931781   0.000000
   13       17.127866   0.000000
   14       17.127866   0.000000
   15       21.164483   0.000000
   16       23.347614   0.000000
   17       23.347614   0.000000
   18       25.485898   0.000000
   19       27.165361   0.000000
   20       27.497034   0.000000
   21       27.497048   0.000000
   22       30.193729   0.000000
   23       30.193960   0.000000
   24       30.691976   0.000000
   25       30.692034   0.000000
   26       31.562101   0.000000
   27       31.645473   0.000000
   28       35.230580   0.000000
   29       35.237312   0.000000
   30       35.579176   0.000000
   31       35.596000   0.000000
   32       35.887761   0.000000
   33       37.542979   0.000000
   34       37.828540   0.000000
   35       42.587580   0.000000
   36       42.654288   0.000000
   37       42.994455   0.000000
   38       43.565606   0.000000
   39       43.962760   0.000000
   40       44.926643   0.000000
   41       46.226718   0.000000
   42       47.482899   0.000000
   43       48.827279   0.000000
   44       51.153250   0.000000
   45       51.804732   0.000000
   46       53.513114   0.000000
   47       53.703930   0.000000
   48       56.374349   0.000000
   49       56.646804   0.000000
   50       58.625057   0.000000
   51       58.645356   0.000000
   52       62.994312   0.000000
   53       65.214519   0.000000
   54       66.725722   0.000000
   55       69.082651   0.000000
   56       73.224298   0.000000
 
  0.4183673E+00  0.4183673E+00  0.4183673E+00  0.1000000E-01
    1       -7.166004   1.000000
    2       -3.489158   1.000000
    3        2.143460   1.000000
    4        2.143460   1.000000
    5        4.101204  -0.000000
    6        7.440011   0.000000
    7        7.440011   0.000000
    8       10.974457   0.000000
    9       12.899628   0.000000
   10       13.868813   0.000000
   11       13.868813   0.000000
   12       16.077843   0.000000
   13       17.348270   0.000000
   14       17.348270   0.000000
   15       20.953984   0.000000
   16       23.067143   0.000000
   17       23.067143   0.000000
   18       25.726699   0.000000
   19       26.951049   0.000000
   20       27.792047   0.000000
   21       27.792047   0.000000
   22       30.181113   0.000000
   23       30.181114   0.000000
   24       30.675053   0.000000
   25       30.675054   0.000000
   26       31.529278   0.000000
   27       31.920101   0.000000
   28       35.275626   0.000000
   29       35.275729   0.000000
   30       35.655674   0.000000
   31       35.655712   0.000000
   32       35.863038   0.000000
   33       37.569540   0.000000
   34       37.973745   0.000000
   35       42.489500   0.000000
   36       42.501087   0.000000
   37       42.821840   0.000000
   38       43.566169   0.000000
   39       43.568569   0.000000
   40       44.735919   0.000000
   41       45.904297   0.000000
   42       45.916299   0.000000
   43       48.588246   0.000000
   44       50.602247   0.000000
   45       51.539525   0.000000
   46       52.835852   0.000000
   47       53.030798   0.000000
   48       55.571936   0.000000
   49       56.432380   0.000000
   50       57.064356   0.000000
   51       57.322122   0.000000
   52       60.347513   0.000000
   53       62.393095   0.000000
   54       63.215463   0.000000
   55       64.598144   0.000000
   56       67.910130   0.000000
 
  0.4081633E+00  0.4081633E+00  0.4081633E+00  0.1000000E-01
    1       -7.226863   1.000000
    2       -3.383731   1.000000
    3        2.159139   1.000000
    4        2.159139   1.000000
    5        4.114942  -0.000000
    6        7.442530   0.000000
    7        7.442530   0.000000
    8       10.985211   0.000000
    9       12.706441   0.000000
   10       13.710097   0.000000
   11       13.710097   0.000000
   12       16.204536   0.000000
   13       17.573775   0.000000
   14       17.573775   0.000000
   15       20.765796   0.000000
   16       22.789705   0.000000
   17       22.789705   0.000000
   18       25.857951   0.000000
   19       26.851480   0.000000
   20       28.080234   0.000000
   21       28.080234   0.000000
   22       30.169501   0.000000
   23       30.169501   0.000000
   24       30.661055   0.000000
   25       30.661055   0.000000
   26       31.493683   0.000000
   27       32.180284   0.000000
   28       35.327783   0.000000
   29       35.327783   0.000000
   30       35.738885   0.000000
   31       35.738885   0.000000
   32       35.854189   0.000000
   33       37.653668   0.000000
   34       38.096319   0.000000
   35       42.489515   0.000000
   36       42.489619   0.000000
   37       42.841064   0.000000
   38       43.494581   0.000000
   39       43.494630   0.000000
   40       44.743299   0.000000
   41       45.615486   0.000000
   42       45.615525   0.000000
   43       48.300895   0.000000
   44       50.497342   0.000000
   45       50.643155   0.000000
   46       52.432980   0.000000
   47       52.689436   0.000000
   48       54.638299   0.000000
   49       55.181592   0.000000
   50       55.489475   0.000000
   51       55.633083   0.000000
   52       55.987577   0.000000
   53       58.038510   0.000000
   54       62.732731   0.000000
   55       63.741603   0.000000
   56       65.959692   0.000000
 
  0.3979592E+00  0.3979592E+00  0.3979592E+00  0.1000000E-01
    1       -7.290749   1.000000
    2       -3.270092   1.000000
    3        2.176622   1.000000
    4        2.176622   1.000000
    5        4.130255  -0.000000
    6        7.444672   0.000000
    7        7.444672   0.000000
    8       10.993574   0.000000
    9       12.518796   0.000000
   10       13.555273   0.000000
   11       13.555273   0.000000
   12       16.306806   0.000000
   13       17.803480   0.000000
   14       17.803480   0.000000
   15       20.605551   0.000000
   16       22.515532   0.000000
   17       22.515532   0.000000
   18       25.803343   0.000000
   19       26.942905   0.000000
   20       28.357447   0.000000
   21       28.357447   0.000000
   22       30.159804   0.000000
   23       30.159804   0.000000
   24       30.653723   0.000000
   25       30.653724   0.000000
   26       31.455250   0.000000
   27       32.420555   0.000000
   28       35.386916   0.000000
   29       35.386918   0.000000
   30       35.828115   0.000000
   31       35.828152   0.000000
   32       35.866558   0.000000
   33       37.746667   0.000000
   34       38.223580   0.000000
   35       42.490830   0.000000
   36       42.515128   0.000000
   37       42.882363   0.000000
   38       43.390614   0.000000
   39       43.424367   0.000000
   40       44.819862   0.000000
   41       45.306982   0.000000
   42       45.358869   0.000000
   43       47.992260   0.000000
   44       50.483379   0.000000
   45       50.867768   0.000000
   46       52.446225   0.000000
   47       52.645435   0.000000
   48       55.388959   0.000000
   49       56.016322   0.000000
   50       56.205178   0.000000
   51       56.969133   0.000000
   52       59.648967   0.000000
   53       60.268128   0.000000
   54       62.147597   0.000000
   55       63.374013   0.000000
   56       66.883028   0.000000
 
  0.3877551E+00  0.3877551E+00  0.3877551E+00  0.1000000E-01
    1       -7.356921   1.000000
    2       -3.148990   1.000000
    3        2.195899   1.000000
    4        2.195899   1.000000
    5        4.147128  -0.000000
    6        7.446219   0.000000
    7        7.446219   0.000000
    8       10.997155   0.000000
    9       12.339269   0.000000
   10       13.405139   0.000000
   11       13.405139   0.000000
   12       16.379444   0.000000
   13       18.036807   0.000000
   14       18.036807   0.000000
   15       20.478930   0.000000
   16       22.244951   0.000000
   17       22.244951   0.000000
   18       25.613080   0.000000
   19       27.175064   0.000000
   20       28.617839   0.000000
   21       28.617967   0.000000
   22       30.152868   0.000000
   23       30.152920   0.000000
   24       30.659282   0.000000
   25       30.659292   0.000000
   26       31.415128   0.000000
   27       32.635372   0.000000
   28       35.453474   0.000000
   29       35.484998   0.000000
   30       35.906820   0.000000
   31       35.923765   0.000000
   32       36.025849   0.000000
   33       38.170536   0.000000
   34       38.350135   0.000000
   35       42.624832   0.000000
   36       42.884617   0.000000
   37       43.404645   0.000000
   38       43.684950   0.000000
   39       44.335505   0.000000
   40       44.501814   0.000000
   41       44.771326   0.000000
   42       47.261654   0.000000
   43       50.999440   0.000000
   44       51.297544   0.000000
   45       51.576730   0.000000
   46       53.443992   0.000000
   47       53.918808   0.000000
   48       56.088827   0.000000
   49       57.706048   0.000000
   50       59.602841   0.000000
   51       62.131821   0.000000
   52       63.139437   0.000000
   53       63.289843   0.000000
   54       68.502252   0.000000
   55       70.510968   0.000000
   56       76.245232   0.000000
 
  0.3775510E+00  0.3775510E+00  0.3775510E+00  0.1000000E-01
    1       -7.424740   1.000000
    2       -3.021090   1.000000
    3        2.216952   1.000000
    4        2.216952   1.000000
    5        4.165537  -0.000000
    6        7.446912   0.000000
    7        7.446912   0.000000
    8       10.992284   0.000000
    9       12.171575   0.000000
   10       13.260303   0.000000
   11       13.260303   0.000000
   12       16.417728   0.000000
   13       18.272593   0.000000
   14       18.272593   0.000000
   15       20.390629   0.000000
   16       21.978366   0.000000
   17       21.978366   0.000000
   18       25.367222   0.000000
   19       27.467684   0.000000
   20       28.852112   0.000000
   21       28.852112   0.000000
   22       30.148000   0.000000
   23       30.148000   0.000000
   24       30.686897   0.000000
   25       30.686898   0.000000
   26       31.371309   0.000000
   27       32.818346   0.000000
   28       35.525276   0.000000
   29       35.525284   0.000000
   30       35.977561   0.000000
   31       36.023247   0.000000
   32       36.023406   0.000000
   33       37.956965   0.000000
   34       38.488503   0.000000
   35       42.494172   0.000000
   36       42.518657   0.000000
   37       42.949726   0.000000
   38       43.055974   0.000000
   39       43.061311   0.000000
   40       44.813307   0.000000
   41       44.954509   0.000000
   42       44.976702   0.000000
   43       47.406230   0.000000
   44       50.363415   0.000000
   45       50.677360   0.000000
   46       52.100799   0.000000
   47       52.226266   0.000000
   48       54.699018   0.000000
   49       55.368461   0.000000
   50       56.296525   0.000000
   51       56.524063   0.000000
   52       59.691030   0.000000
   53       61.006898   0.000000
   54       62.366332   0.000000
   55       62.679185   0.000000
   56       69.402516   0.000000
 
  0.3673469E+00  0.3673469E+00  0.3673469E+00  0.1000000E-01
    1       -7.493638   1.000000
    2       -2.886979   1.000000
    3        2.239763   1.000000
    4        2.239763   1.000000
    5        4.185463  -0.000000
    6        7.446484   0.000000
    7        7.446484   0.000000
    8       10.973559   0.000000
    9       12.021169   0.000000
   10       13.121305   0.000000
   11       13.121305   0.000000
   12       16.418414   0.000000
   13       18.510100   0.000000
   14       18.510100   0.000000
   15       20.344709   0.000000
   16       21.716395   0.000000
   17       21.716395   0.000000
   18       25.100668   0.000000
   19       27.786217   0.000000
   20       29.050186   0.000000
   21       29.050186   0.000000
   22       30.143115   0.000000
   23       30.143115   0.000000
   24       30.750101   0.000000
   25       30.750101   0.000000
   26       31.326426   0.000000
   27       32.966080   0.000000
   28       35.603749   0.000000
   29       35.603749   0.000000
   30       36.085611   0.000000
   31       36.127501   0.000000
   32       36.127501   0.000000
   33       38.073335   0.000000
   34       38.624559   0.000000
   35       42.490704   0.000000
   36       42.490705   0.000000
   37       42.825205   0.000000
   38       42.825206   0.000000
   39       42.947733   0.000000
   40       44.783215   0.000000
   41       44.854993   0.000000
   42       44.854993   0.000000
   43       47.157622   0.000000
   44       50.273960   0.000000
   45       50.336843   0.000000
   46       51.846749   0.000000
   47       51.949102   0.000000
   48       53.854377   0.000000
   49       54.594500   0.000000
   50       54.663407   0.000000
   51       55.169532   0.000000
   52       56.552172   0.000000
   53       57.045769   0.000000
   54       59.506109   0.000000
   55       60.631305   0.000000
   56       62.878323   0.000000
 
  0.3571429E+00  0.3571429E+00  0.3571429E+00  0.1000000E-01
    1       -7.563128   1.000000
    2       -2.747170   1.000000
    3        2.264312   1.000000
    4        2.264312   1.000000
    5        4.206880  -0.000000
    6        7.444649   0.000000
    7        7.444649   0.000000
    8       10.933926   0.000000
    9       11.895025   0.000000
   10       12.988701   0.000000
   11       12.988701   0.000000
   12       16.380560   0.000000
   13       18.748037   0.000000
   14       18.748037   0.000000
   15       20.342214   0.000000
   16       21.460412   0.000000
   17       21.460412   0.000000
   18       24.826172   0.000000
   19       28.117814   0.000000
   20       29.203258   0.000000
   21       29.203439   0.000000
   22       30.134500   0.000000
   23       30.134529   0.000000
   24       30.861919   0.000000
   25       30.861922   0.000000
   26       31.280655   0.000000
   27       33.076089   0.000000
   28       35.694428   0.000000
   29       35.694675   0.000000
   30       36.232397   0.000000
   31       36.235501   0.000000
   32       36.425794   0.000000
   33       38.654581   0.000000
   34       38.737925   0.000000
   35       42.553355   0.000000
   36       42.589048   0.000000
   37       42.718865   0.000000
   38       43.092410   0.000000
   39       43.312338   0.000000
   40       44.781119   0.000000
   41       45.020899   0.000000
   42       46.317199   0.000000
   43       50.210312   0.000000
   44       50.878553   0.000000
   45       51.538812   0.000000
   46       53.177151   0.000000
   47       53.239258   0.000000
   48       54.939165   0.000000
   49       57.429770   0.000000
   50       57.818629   0.000000
   51       60.199983   0.000000
   52       60.985666   0.000000
   53       62.140679   0.000000
   54       63.703854   0.000000
   55       68.315545   0.000000
   56       70.777093   0.000000
 
  0.3469388E+00  0.3469388E+00  0.3469388E+00  0.1000000E-01
    1       -7.632791   1.000000
    2       -2.602114   1.000000
    3        2.290574   1.000000
    4        2.290574   1.000000
    5        4.229750  -0.000000
    6        7.441101   0.000000
    7        7.441101   0.000000
    8       10.866536   0.000000
    9       11.799875   0.000000
   10       12.862950   0.000000
   11       12.862951   0.000000
   12       16.305857   0.000000
   13       18.984116   0.000000
   14       18.984116   0.000000
   15       20.381541   0.000000
   16       21.212307   0.000000
   17       21.212307   0.000000
   18       24.549211   0.000000
   19       28.456821   0.000000
   20       29.309027   0.000000
   21       29.310185   0.000000
   22       30.119018   0.000000
   23       30.121238   0.000000
   24       31.028088   0.000000
   25       31.030286   0.000000
   26       31.231104   0.000000
   27       33.149696   0.000000
   28       35.785887   0.000000
   29       35.812486   0.000000
   30       36.347450   0.000000
   31       36.416833   0.000000
   32       36.559275   0.000000