 vasp.5.4.4.18Apr17-6-g9f103f2a35 (build Nov 08 2017 12:56:59) complex          
  
 executed on             LinuxIFC date 2020.03.24  22:29:16
 running on   56 total cores
 distrk:  each k-point on   56 cores,    1 groups
 distr:  one band on NCORES_PER_BAND=   1 cores,   56 groups


--------------------------------------------------------------------------------------------------------


 INCAR:
 POTCAR:    PAW_PBE Ge 05Jan2001                  

 ----------------------------------------------------------------------------- 
|                                                                             |
|           W    W    AA    RRRRR   N    N  II  N    N   GGGG   !!!           |
|           W    W   A  A   R    R  NN   N  II  NN   N  G    G  !!!           |
|           W    W  A    A  R    R  N N  N  II  N N  N  G       !!!           |
|           W WW W  AAAAAA  RRRRR   N  N N  II  N  N N  G  GGG   !            |
|           WW  WW  A    A  R   R   N   NN  II  N   NN  G    G                |
|           W    W  A    A  R    R  N    N  II  N    N   GGGG   !!!           |
|                                                                             |
|      For optimal performance we recommend to set                            |
|        NCORE= 4 - approx SQRT( number of cores)                             |
|      NCORE specifies how many cores store one orbital (NPAR=cpu/NCORE).     |
|      This setting can  greatly improve the performance of VASP for DFT.     |
|      The default,   NCORE=1            might be grossly inefficient         |
|      on modern multi-core architectures or massively parallel machines.     |
|      Do your own testing !!!!                                               |
|      Unfortunately you need to use the default for GW and RPA calculations. |
|      (for HF NCORE is supported but not extensively tested yet)             |
|                                                                             |
 ----------------------------------------------------------------------------- 

 POTCAR:    PAW_PBE Ge 05Jan2001                  
   VRHFIN =Ge: s2p2                                                             
   LEXCH  = PE                                                                  
   EATOM  =   104.9960 eV,    7.7170 Ry                                         
                                                                                
   TITEL  = PAW_PBE Ge 05Jan2001                                                
   LULTRA =        F    use ultrasoft PP ?                                      
   IUNSCR =        1    unscreen: 0-lin 1-nonlin 2-no                           
   RPACOR =    2.170    partial core radius                                     
   POMASS =   72.610; ZVAL   =    4.000    mass and valenz                      
   RCORE  =    2.300    outmost cutoff radius                                   
   RWIGS  =    2.300; RWIGS  =    1.217    wigner-seitz radius (au A)           
   ENMAX  =  173.807; ENMIN  =  130.355 eV                                      
   ICORE  =        3    local potential                                         
   LCOR   =        T    correct aug charges                                     
   LPAW   =        T    paw PP                                                  
   EAUG   =  385.843                                                            
   DEXC   =    0.000                                                            
   RMAX   =    2.342    core radius for proj-oper                               
   RAUG   =    1.300    factor for augmentation sphere                          
   RDEP   =    2.318    radius for radial grids                                 
   RDEPT  =    2.103    core radius for aug-charge                              
                                                                                
   Atomic configuration                                                         
   10 entries                                                                   
     n  l   j            E        occ.                                          
     1  0  0.50    -10959.8463   2.0000                                         
     2  0  0.50     -1371.6056   2.0000                                         
     2  1  1.50     -1198.4791   6.0000                                         
     3  0  0.50      -168.4733   2.0000                                         
     3  1  1.50      -115.6019   6.0000                                         
     3  2  2.50       -29.3106  10.0000                                         
     4  0  0.50       -11.7309   2.0000                                         
     4  1  0.50        -3.8952   2.0000                                         
     4  2  1.50        -4.0817   0.0000                                         
     4  3  2.50        -4.0817   0.0000                                         
   Description                                                                  
     l       E           TYP  RCUT    TYP  RCUT                                 
     0    -11.7309493     23  2.300                                             
     0     -7.4578696     23  2.300                                             
     1     -3.8952261     23  2.300                                             
     1      6.1178114     23  2.300                                             
     2     -4.0817478     23  2.300                                             
     3     -1.3605826      7  2.300                                             
  local pseudopotential read in
  partial core-charges read in
  partial kinetic energy density read in
  atomic valenz-charges read in
  non local Contribution for L=           0  read in
    real space projection operators read in
  non local Contribution for L=           0  read in
    real space projection operators read in
  non local Contribution for L=           1  read in
    real space projection operators read in
  non local Contribution for L=           1  read in
    real space projection operators read in
  non local Contribution for L=           2  read in
    real space projection operators read in
    PAW grid and wavefunctions read in
 
   number of l-projection  operators is LMAX  =           5
   number of lm-projection operators is LMMAX =          13
 
  PAW_PBE Ge 05Jan2001                  :
 energy of atom  1       EATOM= -104.9960
 kinetic energy error for atom=    0.0003 (will be added to EATOM!!)
 
 
 POSCAR: Ge                                      
  positions in direct lattice
  No initial velocities read in
 exchange correlation table for  LEXCH =        8
   RHO(1)=    0.500       N(1)  =     2000
   RHO(2)=  100.500       N(2)  =     4000
 


--------------------------------------------------------------------------------------------------------


 ion  position               nearest neighbor table
   1  0.000  0.000  0.000-   2 2.44   2 2.44   2 2.44   2 2.44
   2  0.250  0.250  0.250-   1 2.44   1 2.44   1 2.44   1 2.44
 
  LATTYP: Found a face centered cubic cell.
 ALAT       =     5.6330000000
  
  Lattice vectors:
  
 A1 = (   0.0000000000,   2.8165000000,   2.8165000000)
 A2 = (   2.8165000000,   0.0000000000,   2.8165000000)
 A3 = (   2.8165000000,   2.8165000000,   0.0000000000)


Analysis of symmetry for initial positions (statically):
=====================================================================
 Subroutine PRICEL returns:
 Original cell was already a primitive cell.
 

 Routine SETGRP: Setting up the symmetry group for a 
 face centered cubic supercell.


 Subroutine GETGRP returns: Found 48 space group operations
 (whereof 24 operations were pure point group operations)
 out of a pool of 48 trial point group operations.


The static configuration has the point symmetry T_d .
 The point group associated with its full space group is O_h .


Analysis of symmetry for dynamics (positions and initial velocities):
=====================================================================
 Subroutine PRICEL returns:
 Original cell was already a primitive cell.
 

 Routine SETGRP: Setting up the symmetry group for a 
 face centered cubic supercell.


 Subroutine GETGRP returns: Found 48 space group operations
 (whereof 24 operations were pure point group operations)
 out of a pool of 48 trial point group operations.


The dynamic configuration has the point symmetry T_d .
 The point group associated with its full space group is O_h .


 Subroutine INISYM returns: Found 48 space group operations
 (whereof 24 operations are pure point group operations),
 and found     1 'primitive' translations

 
 
 KPOINTS: band                                    
  interpolating k-points between supplied coordinates
  k-points in reciprocal lattice
Space group operators:
 irot       det(A)        alpha          n_x          n_y          n_z        tau_x        tau_y        tau_z
    1     1.000000     0.000000     1.000000     0.000000     0.000000     0.000000     0.000000     0.000000
    2     1.000000   120.000000    -0.577350    -0.577350    -0.577350     0.000000     0.000000     0.000000
    3     1.000000   120.000000     0.577350     0.577350     0.577350     0.000000     0.000000     0.000000
    4    -1.000000    90.000000     0.000000     0.000000    -1.000000     0.000000     0.000000     0.000000
    5    -1.000000   180.000000     0.000000     0.707107     0.707107     0.000000     0.000000     0.000000
    6    -1.000000    90.000000     0.000000     1.000000     0.000000     0.000000     0.000000     0.000000
    7     1.000000   180.000000     0.000000     0.000000     1.000000     0.000000     0.000000     0.000000
    8     1.000000   120.000000    -0.577350     0.577350     0.577350     0.000000     0.000000     0.000000
    9     1.000000   120.000000    -0.577350     0.577350    -0.577350     0.000000     0.000000     0.000000
   10    -1.000000    90.000000     0.000000     0.000000     1.000000     0.000000     0.000000     0.000000
   11    -1.000000    90.000000    -1.000000     0.000000     0.000000     0.000000     0.000000     0.000000
   12    -1.000000   180.000000     0.707107     0.000000     0.707107     0.000000     0.000000     0.000000
   13     1.000000   120.000000     0.577350    -0.577350     0.577350     0.000000     0.000000     0.000000
   14     1.000000   120.000000    -0.577350    -0.577350     0.577350     0.000000     0.000000     0.000000
   15     1.000000   180.000000     1.000000     0.000000     0.000000     0.000000     0.000000     0.000000
   16    -1.000000    90.000000     0.000000    -1.000000     0.000000     0.000000     0.000000     0.000000
   17    -1.000000   180.000000     0.707107     0.707107     0.000000     0.000000     0.000000     0.000000
   18    -1.000000    90.000000     1.000000     0.000000     0.000000     0.000000     0.000000     0.000000
   19     1.000000   120.000000     0.577350    -0.577350    -0.577350     0.000000     0.000000     0.000000
   20     1.000000   180.000000     0.000000     1.000000     0.000000     0.000000     0.000000     0.000000
   21     1.000000   120.000000     0.577350     0.577350    -0.577350     0.000000     0.000000     0.000000
   22    -1.000000   180.000000     0.000000    -0.707107     0.707107     0.000000     0.000000     0.000000
   23    -1.000000   180.000000     0.707107    -0.707107     0.000000     0.000000     0.000000     0.000000
   24    -1.000000   180.000000     0.707107     0.000000    -0.707107     0.000000     0.000000     0.000000
   25    -1.000000     0.000000     1.000000     0.000000     0.000000     0.250000     0.250000     0.250000
   26    -1.000000   120.000000    -0.577350    -0.577350    -0.577350     0.250000     0.250000     0.250000
   27    -1.000000   120.000000     0.577350     0.577350     0.577350     0.250000     0.250000     0.250000
   28     1.000000    90.000000     0.000000     0.000000    -1.000000     0.250000     0.250000     0.250000
   29     1.000000   180.000000     0.000000     0.707107     0.707107     0.250000     0.250000     0.250000
   30     1.000000    90.000000     0.000000     1.000000     0.000000     0.250000     0.250000     0.250000
   31    -1.000000   180.000000     0.000000     0.000000     1.000000     0.250000     0.250000     0.250000
   32    -1.000000   120.000000    -0.577350     0.577350     0.577350     0.250000     0.250000     0.250000
   33    -1.000000   120.000000    -0.577350     0.577350    -0.577350     0.250000     0.250000     0.250000
   34     1.000000    90.000000     0.000000     0.000000     1.000000     0.250000     0.250000     0.250000
   35     1.000000    90.000000    -1.000000     0.000000     0.000000     0.250000     0.250000     0.250000
   36     1.000000   180.000000     0.707107     0.000000     0.707107     0.250000     0.250000     0.250000
   37    -1.000000   120.000000     0.577350    -0.577350     0.577350     0.250000     0.250000     0.250000
   38    -1.000000   120.000000    -0.577350    -0.577350     0.577350     0.250000     0.250000     0.250000
   39    -1.000000   180.000000     1.000000     0.000000     0.000000     0.250000     0.250000     0.250000
   40     1.000000    90.000000     0.000000    -1.000000     0.000000     0.250000     0.250000     0.250000
   41     1.000000   180.000000     0.707107     0.707107     0.000000     0.250000     0.250000     0.250000
   42     1.000000    90.000000     1.000000     0.000000     0.000000     0.250000     0.250000     0.250000
   43    -1.000000   120.000000     0.577350    -0.577350    -0.577350     0.250000     0.250000     0.250000
   44    -1.000000   180.000000     0.000000     1.000000     0.000000     0.250000     0.250000     0.250000
   45    -1.000000   120.000000     0.577350     0.577350    -0.577350     0.250000     0.250000     0.250000
   46     1.000000   180.000000     0.000000    -0.707107     0.707107     0.250000     0.250000     0.250000
   47     1.000000   180.000000     0.707107    -0.707107     0.000000     0.250000     0.250000     0.250000
   48     1.000000   180.000000     0.707107     0.000000    -0.707107     0.250000     0.250000     0.250000


--------------------------------------------------------------------------------------------------------




 Dimension of arrays:
   k-points           NKPTS =    100   k-points in BZ     NKDIM =    100   number of bands    NBANDS=     56
   number of dos      NEDOS =    301   number of ions     NIONS =      2
   non local maximal  LDIM  =      5   non local SUM 2l+1 LMDIM =     13
   total plane-waves  NPLWV =  13824
   max r-space proj   IRMAX =      1   max aug-charges    IRDMAX=  17012
   dimension x,y,z NGX =    24 NGY =   24 NGZ =   24
   dimension x,y,z NGXF=    48 NGYF=   48 NGZF=   48
   support grid    NGXF=    48 NGYF=   48 NGZF=   48
   ions per type =               2
   NGX,Y,Z   is equivalent  to a cutoff of  10.02, 10.02, 10.02 a.u.
   NGXF,Y,Z  is equivalent  to a cutoff of  20.03, 20.03, 20.03 a.u.

 SYSTEM =  unknown system                          
 POSCAR =  Ge                                      

 Startparameter for this run:
   NWRITE =      2    write-flag & timer
   PREC   = n         normal or accurate (medium, high low for compatibility)
   ISTART =      1    job   : 0-new  1-cont  2-samecut
   ICHARG =     11    charge: 1-file 2-atom 10-const
   ISPIN  =      1    spin polarized calculation?
   LNONCOLLINEAR =      F non collinear calculations
   LSORBIT =      F    spin-orbit coupling
   INIWAV =      1    electr: 0-lowe 1-rand  2-diag
   LASPH  =      F    aspherical Exc in radial PAW
   METAGGA=      F    non-selfconsistent MetaGGA calc.

 Electronic Relaxation 1
   ENCUT  =  450.0 eV  33.07 Ry    5.75 a.u.   6.89  6.89  6.89*2*pi/ulx,y,z
   ENINI  =  450.0     initial cutoff
   ENAUG  =  385.8 eV  augmentation charge cutoff
   NELM   =     60;   NELMIN=  2; NELMDL=  0     # of ELM steps 
   EDIFF  = 0.1E-03   stopping-criterion for ELM
   LREAL  =      F    real-space projection
   NLSPLINE    = F    spline interpolate recip. space projectors
   LCOMPAT=      F    compatible to vasp.4.4
   GGA_COMPAT  = T    GGA compatible to vasp.4.4-vasp.4.6
   LMAXPAW     = -100 max onsite density
   LMAXMIX     =    2 max onsite mixed and CHGCAR
   VOSKOWN=      0    Vosko Wilk Nusair interpolation
   ROPT   =    0.00000
 Ionic relaxation
   EDIFFG = 0.1E-02   stopping-criterion for IOM
   NSW    =      0    number of steps for IOM
   NBLOCK =      1;   KBLOCK =      1    inner block; outer block 
   IBRION =     -1    ionic relax: 0-MD 1-quasi-New 2-CG
   NFREE  =      0    steps in history (QN), initial steepest desc. (CG)
   ISIF   =      2    stress and relaxation
   IWAVPR =     10    prediction:  0-non 1-charg 2-wave 3-comb
   ISYM   =      2    0-nonsym 1-usesym 2-fastsym
   LCORR  =      T    Harris-Foulkes like correction to forces

   POTIM  = 0.5000    time-step for ionic-motion
   TEIN   =    0.0    initial temperature
   TEBEG  =    0.0;   TEEND  =   0.0 temperature during run
   SMASS  =  -3.00    Nose mass-parameter (am)
   estimated Nose-frequenzy (Omega)   =  0.10E-29 period in steps =****** mass=  -0.363E-27a.u.
   SCALEE = 1.0000    scale energy and forces
   NPACO  =    256;   APACO  = 16.0  distance and # of slots for P.C.
   PSTRESS=    0.0 pullay stress

  Mass of Ions in am
   POMASS =  72.61
  Ionic Valenz
   ZVAL   =   4.00
  Atomic Wigner-Seitz radii
   RWIGS  =  -1.00
  virtual crystal weights 
   VCA    =   1.00
   NELECT =       8.0000    total number of electrons
   NUPDOWN=      -1.0000    fix difference up-down

 DOS related values:
   EMIN   =  10.00;   EMAX   =-10.00  energy-range for DOS
   EFERMI =   0.00
   ISMEAR =     1;   SIGMA  =   0.05  broadening in eV -4-tet -1-fermi 0-gaus

 Electronic relaxation 2 (details)
   IALGO  =     53    algorithm
   LDIAG  =      T    sub-space diagonalisation (order eigenvalues)
   LSUBROT=      F    optimize rotation matrix (better conditioning)
   TURBO    =      0    0=normal 1=particle mesh
   IRESTART =      0    0=no restart 2=restart with 2 vectors
   NREBOOT  =      0    no. of reboots
   NMIN     =      0    reboot dimension
   EREF     =   0.00    reference energy to select bands
   IMIX   =      4    mixing-type and parameters
     AMIX     =   0.40;   BMIX     =  1.00
     AMIX_MAG =   1.60;   BMIX_MAG =  1.00
     AMIN     =   0.10
     WC   =   100.;   INIMIX=   1;  MIXPRE=   1;  MAXMIX= -45

 Intra band minimization:
   WEIMIN = 0.0000     energy-eigenvalue tresh-hold
   EBREAK =  0.45E-06  absolut break condition
   DEPER  =   0.30     relativ break condition  

   TIME   =   0.40     timestep for ELM

  volume/ion in A,a.u.               =      22.34       150.77
  Fermi-wavevector in a.u.,A,eV,Ry     =   0.922681  1.743615 11.583196  0.851341
  Thomas-Fermi vector in A             =   2.048235
 
 Write flags
   LWAVE        =      F    write WAVECAR
   LDOWNSAMPLE  =      F    k-point downsampling of WAVECAR
   LCHARG       =      F    write CHGCAR
   LVTOT        =      F    write LOCPOT, total local potential
   LVHAR        =      F    write LOCPOT, Hartree potential only
   LELF         =      F    write electronic localiz. function (ELF)
   LORBIT       =      0    0 simple, 1 ext, 2 COOP (PROOUT), +10 PAW based schemes


 Dipole corrections
   LMONO  =      F    monopole corrections only (constant potential shift)
   LDIPOL =      F    correct potential (dipole corrections)
   IDIPOL =      0    1-x, 2-y, 3-z, 4-all directions 
   EPSILON=  1.0000000 bulk dielectric constant

 LDA+U is selected, type is set to LDAUTYPE =  2
   angular momentum for each species LDAUL =     1
   U (eV)           for each species LDAUU =  -2.1
   J (eV)           for each species LDAUJ =   0.0
 Exchange correlation treatment:
   GGA     =    PE    GGA type
   LEXCH   =     8    internal setting for exchange type
   VOSKOWN=      0    Vosko Wilk Nusair interpolation
   LHFCALC =     F    Hartree Fock is set to
   LHFONE  =     F    Hartree Fock one center treatment
   AEXX    =    0.0000 exact exchange contribution

 Linear response parameters
   LEPSILON=     F    determine dielectric tensor
   LRPA    =     F    only Hartree local field effects (RPA)
   LNABLA  =     F    use nabla operator in PAW spheres
   LVEL    =     F    velocity operator in full k-point grid
   LINTERFAST=   F  fast interpolation
   KINTER  =     0    interpolate to denser k-point grid
   CSHIFT  =0.1000    complex shift for real part using Kramers Kronig
   OMEGAMAX=  -1.0    maximum frequency
   DEG_THRESHOLD= 0.2000000E-02 threshold for treating states as degnerate
   RTIME   =   -0.100 relaxation time in fs
  (WPLASMAI=    0.000 imaginary part of plasma frequency in eV, 0.658/RTIME)
   DFIELD  = 0.0000000 0.0000000 0.0000000 field for delta impulse in time
 
 Orbital magnetization related:
   ORBITALMAG=     F  switch on orbital magnetization
   LCHIMAG   =     F  perturbation theory with respect to B field
   DQ        =  0.001000  dq finite difference perturbation B field
   LLRAUG    =     F  two centre corrections for induced B field



--------------------------------------------------------------------------------------------------------


 Static calculation
 charge density and potential remain constant during run
 non-spin polarized calculation
 Conjugate gradient for all bands (Freysoldt, et al. PRB 79, 241103 (2009))
 perform sub-space diagonalisation
    before iterative eigenvector-optimisation
 no mixing
 using additional bands           52
 reciprocal scheme for non local part
 use partial core corrections
 calculate Harris-corrections to forces 
   (improved forces if not selfconsistent)
 use gradient corrections 
 WARNING: stress and forces are not correct
  (second derivative of E(xc) not defined)
 use of overlap-Matrix (Vanderbilt PP)
 Methfessel and Paxton  Order N= 1 SIGMA  =   0.05


--------------------------------------------------------------------------------------------------------


  energy-cutoff  :      450.00
  volume of cell :       44.68
      direct lattice vectors                 reciprocal lattice vectors
     0.000000000  2.816500000  2.816500000    -0.177525297  0.177525297  0.177525297
     2.816500000  0.000000000  2.816500000     0.177525297 -0.177525297  0.177525297
     2.816500000  2.816500000  0.000000000     0.177525297  0.177525297 -0.177525297

  length of vectors
     3.983132498  3.983132498  3.983132498     0.307482835  0.307482835  0.307482835


 
 old parameters found on file WAVECAR:
  energy-cutoff  :      450.00
  volume of cell :       44.68
      direct lattice vectors                 reciprocal lattice vectors
     0.000000000  2.816500000  2.816500000    -0.177525297  0.177525297  0.177525297
     2.816500000  0.000000000  2.816500000     0.177525297 -0.177525297  0.177525297
     2.816500000  2.816500000  0.000000000     0.177525297  0.177525297 -0.177525297

  length of vectors

 
 k-points in units of 2pi/SCALE and weight: band                                    
   0.08876265  0.08876265  0.08876265       0.010
   0.08695117  0.08695117  0.08695117       0.010
   0.08513968  0.08513968  0.08513968       0.010
   0.08332820  0.08332820  0.08332820       0.010
   0.08151672  0.08151672  0.08151672       0.010
   0.07970524  0.07970524  0.07970524       0.010
   0.07789375  0.07789375  0.07789375       0.010
   0.07608227  0.07608227  0.07608227       0.010
   0.07427079  0.07427079  0.07427079       0.010
   0.07245931  0.07245931  0.07245931       0.010
   0.07064782  0.07064782  0.07064782       0.010
   0.06883634  0.06883634  0.06883634       0.010
   0.06702486  0.06702486  0.06702486       0.010
   0.06521337  0.06521337  0.06521337       0.010
   0.06340189  0.06340189  0.06340189       0.010
   0.06159041  0.06159041  0.06159041       0.010
   0.05977893  0.05977893  0.05977893       0.010
   0.05796744  0.05796744  0.05796744       0.010
   0.05615596  0.05615596  0.05615596       0.010
   0.05434448  0.05434448  0.05434448       0.010
   0.05253300  0.05253300  0.05253300       0.010
   0.05072151  0.05072151  0.05072151       0.010
   0.04891003  0.04891003  0.04891003       0.010
   0.04709855  0.04709855  0.04709855       0.010
   0.04528707  0.04528707  0.04528707       0.010
   0.04347558  0.04347558  0.04347558       0.010
   0.04166410  0.04166410  0.04166410       0.010
   0.03985262  0.03985262  0.03985262       0.010
   0.03804114  0.03804114  0.03804114       0.010
   0.03622965  0.03622965  0.03622965       0.010
   0.03441817  0.03441817  0.03441817       0.010
   0.03260669  0.03260669  0.03260669       0.010
   0.03079520  0.03079520  0.03079520       0.010
   0.02898372  0.02898372  0.02898372       0.010
   0.02717224  0.02717224  0.02717224       0.010
   0.02536076  0.02536076  0.02536076       0.010
   0.02354927  0.02354927  0.02354927       0.010
   0.02173779  0.02173779  0.02173779       0.010
   0.01992631  0.01992631  0.01992631       0.010
   0.01811483  0.01811483  0.01811483       0.010
   0.01630334  0.01630334  0.01630334       0.010
   0.01449186  0.01449186  0.01449186       0.010
   0.01268038  0.01268038  0.01268038       0.010
   0.01086890  0.01086890  0.01086890       0.010
   0.00905741  0.00905741  0.00905741       0.010
   0.00724593  0.00724593  0.00724593       0.010
   0.00543445  0.00543445  0.00543445       0.010
   0.00362297  0.00362297  0.00362297       0.010
   0.00181148  0.00181148  0.00181148       0.010
   0.00000000  0.00000000  0.00000000       0.010
   0.00000000  0.00000000  0.00000000       0.010
   0.00000000  0.00362297  0.00000000       0.010
   0.00000000  0.00724593  0.00000000       0.010
   0.00000000  0.01086890  0.00000000       0.010
   0.00000000  0.01449186  0.00000000       0.010
   0.00000000  0.01811483  0.00000000       0.010
   0.00000000  0.02173779  0.00000000       0.010
   0.00000000  0.02536076  0.00000000       0.010
   0.00000000  0.02898372  0.00000000       0.010
   0.00000000  0.03260669  0.00000000       0.010
   0.00000000  0.03622965  0.00000000       0.010
   0.00000000  0.03985262  0.00000000       0.010
   0.00000000  0.04347558  0.00000000       0.010
   0.00000000  0.04709855  0.00000000       0.010
   0.00000000  0.05072151  0.00000000       0.010
   0.00000000  0.05434448  0.00000000       0.010
   0.00000000  0.05796744  0.00000000       0.010
   0.00000000  0.06159041  0.00000000       0.010
   0.00000000  0.06521337  0.00000000       0.010
   0.00000000  0.06883634  0.00000000       0.010
   0.00000000  0.07245931  0.00000000       0.010
   0.00000000  0.07608227  0.00000000       0.010
   0.00000000  0.07970524  0.00000000       0.010
   0.00000000  0.08332820  0.00000000       0.010
   0.00000000  0.08695117  0.00000000       0.010
   0.00000000  0.09057413  0.00000000       0.010
   0.00000000  0.09419710  0.00000000       0.010
   0.00000000  0.09782006  0.00000000       0.010
   0.00000000  0.10144303  0.00000000       0.010
   0.00000000  0.10506599  0.00000000       0.010
   0.00000000  0.10868896  0.00000000       0.010
   0.00000000  0.11231192  0.00000000       0.010
   0.00000000  0.11593489  0.00000000       0.010
   0.00000000  0.11955785  0.00000000       0.010
   0.00000000  0.12318082  0.00000000       0.010
   0.00000000  0.12680378  0.00000000       0.010
   0.00000000  0.13042675  0.00000000       0.010
   0.00000000  0.13404971  0.00000000       0.010
   0.00000000  0.13767268  0.00000000       0.010
   0.00000000  0.14129564  0.00000000       0.010
   0.00000000  0.14491861  0.00000000       0.010
   0.00000000  0.14854158  0.00000000       0.010
   0.00000000  0.15216454  0.00000000       0.010
   0.00000000  0.15578751  0.00000000       0.010
   0.00000000  0.15941047  0.00000000       0.010
   0.00000000  0.16303344  0.00000000       0.010
   0.00000000  0.16665640  0.00000000       0.010
   0.00000000  0.17027937  0.00000000       0.010
   0.00000000  0.17390233  0.00000000       0.010
   0.00000000  0.17752530  0.00000000       0.010
 
 k-points in reciprocal lattice and weights: band                                    
   0.50000000  0.50000000  0.50000000       0.010
   0.48979592  0.48979592  0.48979592       0.010
   0.47959184  0.47959184  0.47959184       0.010
   0.46938776  0.46938776  0.46938776       0.010
   0.45918367  0.45918367  0.45918367       0.010
   0.44897959  0.44897959  0.44897959       0.010
   0.43877551  0.43877551  0.43877551       0.010
   0.42857143  0.42857143  0.42857143       0.010
   0.41836735  0.41836735  0.41836735       0.010
   0.40816327  0.40816327  0.40816327       0.010
   0.39795918  0.39795918  0.39795918       0.010
   0.38775510  0.38775510  0.38775510       0.010
   0.37755102  0.37755102  0.37755102       0.010
   0.36734694  0.36734694  0.36734694       0.010
   0.35714286  0.35714286  0.35714286       0.010
   0.34693878  0.34693878  0.34693878       0.010
   0.33673469  0.33673469  0.33673469       0.010
   0.32653061  0.32653061  0.32653061       0.010
   0.31632653  0.31632653  0.31632653       0.010
   0.30612245  0.30612245  0.30612245       0.010
   0.29591837  0.29591837  0.29591837       0.010
   0.28571429  0.28571429  0.28571429       0.010
   0.27551020  0.27551020  0.27551020       0.010
   0.26530612  0.26530612  0.26530612       0.010
   0.25510204  0.25510204  0.25510204       0.010
   0.24489796  0.24489796  0.24489796       0.010
   0.23469388  0.23469388  0.23469388       0.010
   0.22448980  0.22448980  0.22448980       0.010
   0.21428571  0.21428571  0.21428571       0.010
   0.20408163  0.20408163  0.20408163       0.010
   0.19387755  0.19387755  0.19387755       0.010
   0.18367347  0.18367347  0.18367347       0.010
   0.17346939  0.17346939  0.17346939       0.010
   0.16326531  0.16326531  0.16326531       0.010
   0.15306122  0.15306122  0.15306122       0.010
   0.14285714  0.14285714  0.14285714       0.010
   0.13265306  0.13265306  0.13265306       0.010
   0.12244898  0.12244898  0.12244898       0.010
   0.11224490  0.11224490  0.11224490       0.010
   0.10204082  0.10204082  0.10204082       0.010
   0.09183673  0.09183673  0.09183673       0.010
   0.08163265  0.08163265  0.08163265       0.010
   0.07142857  0.07142857  0.07142857       0.010
   0.06122449  0.06122449  0.06122449       0.010
   0.05102041  0.05102041  0.05102041       0.010
   0.04081633  0.04081633  0.04081633       0.010
   0.03061224  0.03061224  0.03061224       0.010
   0.02040816  0.02040816  0.02040816       0.010
   0.01020408  0.01020408  0.01020408       0.010
   0.00000000  0.00000000  0.00000000       0.010
   0.00000000  0.00000000  0.00000000       0.010
   0.01020408  0.00000000  0.01020408       0.010
   0.02040816  0.00000000  0.02040816       0.010
   0.03061224  0.00000000  0.03061224       0.010
   0.04081633  0.00000000  0.04081633       0.010
   0.05102041  0.00000000  0.05102041       0.010
   0.06122449  0.00000000  0.06122449       0.010
   0.07142857  0.00000000  0.07142857       0.010
   0.08163265  0.00000000  0.08163265       0.010
   0.09183673  0.00000000  0.09183673       0.010
   0.10204082  0.00000000  0.10204082       0.010
   0.11224490  0.00000000  0.11224490       0.010
   0.12244898  0.00000000  0.12244898       0.010
   0.13265306  0.00000000  0.13265306       0.010
   0.14285714  0.00000000  0.14285714       0.010
   0.15306122  0.00000000  0.15306122       0.010
   0.16326531  0.00000000  0.16326531       0.010
   0.17346939  0.00000000  0.17346939       0.010
   0.18367347  0.00000000  0.18367347       0.010
   0.19387755  0.00000000  0.19387755       0.010
   0.20408163  0.00000000  0.20408163       0.010
   0.21428571  0.00000000  0.21428571       0.010
   0.22448980  0.00000000  0.22448980       0.010
   0.23469388  0.00000000  0.23469388       0.010
   0.24489796  0.00000000  0.24489796       0.010
   0.25510204  0.00000000  0.25510204       0.010
   0.26530612  0.00000000  0.26530612       0.010
   0.27551020  0.00000000  0.27551020       0.010
   0.28571429  0.00000000  0.28571429       0.010
   0.29591837  0.00000000  0.29591837       0.010
   0.30612245  0.00000000  0.30612245       0.010
   0.31632653  0.00000000  0.31632653       0.010
   0.32653061  0.00000000  0.32653061       0.010
   0.33673469  0.00000000  0.33673469       0.010
   0.34693878  0.00000000  0.34693878       0.010
   0.35714286  0.00000000  0.35714286       0.010
   0.36734694  0.00000000  0.36734694       0.010
   0.37755102  0.00000000  0.37755102       0.010
   0.38775510  0.00000000  0.38775510       0.010
   0.39795918  0.00000000  0.39795918       0.010
   0.40816327  0.00000000  0.40816327       0.010
   0.41836735  0.00000000  0.41836735       0.010
   0.42857143  0.00000000  0.42857143       0.010
   0.43877551  0.00000000  0.43877551       0.010
   0.44897959  0.00000000  0.44897959       0.010
   0.45918367  0.00000000  0.45918367       0.010
   0.46938776  0.00000000  0.46938776       0.010
   0.47959184  0.00000000  0.47959184       0.010
   0.48979592  0.00000000  0.48979592       0.010
   0.50000000  0.00000000  0.50000000       0.010
 
 position of ions in fractional coordinates (direct lattice) 
   0.00000000  0.00000000  0.00000000
   0.25000000  0.25000000  0.25000000
 
 position of ions in cartesian coordinates  (Angst):
   0.00000000  0.00000000  0.00000000
   1.40825000  1.40825000  1.40825000
 


--------------------------------------------------------------------------------------------------------


 k-point  1 :   0.5000 0.5000 0.5000  plane waves:     978
 k-point  2 :   0.4898 0.4898 0.4898  plane waves:     969
 k-point  3 :   0.4796 0.4796 0.4796  plane waves:     969
 k-point  4 :   0.4694 0.4694 0.4694  plane waves:     969
 k-point  5 :   0.4592 0.4592 0.4592  plane waves:     969
 k-point  6 :   0.4490 0.4490 0.4490  plane waves:     969
 k-point  7 :   0.4388 0.4388 0.4388  plane waves:     969
 k-point  8 :   0.4286 0.4286 0.4286  plane waves:     969
 k-point  9 :   0.4184 0.4184 0.4184  plane waves:     963
 k-point 10 :   0.4082 0.4082 0.4082  plane waves:     963
 k-point 11 :   0.3980 0.3980 0.3980  plane waves:     966
 k-point 12 :   0.3878 0.3878 0.3878  plane waves:     954
 k-point 13 :   0.3776 0.3776 0.3776  plane waves:     960
 k-point 14 :   0.3673 0.3673 0.3673  plane waves:     965
 k-point 15 :   0.3571 0.3571 0.3571  plane waves:     962
 k-point 16 :   0.3469 0.3469 0.3469  plane waves:     968
 k-point 17 :   0.3367 0.3367 0.3367  plane waves:     968
 k-point 18 :   0.3265 0.3265 0.3265  plane waves:     968
 k-point 19 :   0.3163 0.3163 0.3163  plane waves:     968
 k-point 20 :   0.3061 0.3061 0.3061  plane waves:     962
 k-point 21 :   0.2959 0.2959 0.2959  plane waves:     962
 k-point 22 :   0.2857 0.2857 0.2857  plane waves:     956
 k-point 23 :   0.2755 0.2755 0.2755  plane waves:     956
 k-point 24 :   0.2653 0.2653 0.2653  plane waves:     962
 k-point 25 :   0.2551 0.2551 0.2551  plane waves:     959
 k-point 26 :   0.2449 0.2449 0.2449  plane waves:     959
 k-point 27 :   0.2347 0.2347 0.2347  plane waves:     953
 k-point 28 :   0.2245 0.2245 0.2245  plane waves:     953
 k-point 29 :   0.2143 0.2143 0.2143  plane waves:     953
 k-point 30 :   0.2041 0.2041 0.2041  plane waves:     956
 k-point 31 :   0.1939 0.1939 0.1939  plane waves:     956
 k-point 32 :   0.1837 0.1837 0.1837  plane waves:     950
 k-point 33 :   0.1735 0.1735 0.1735  plane waves:     956
 k-point 34 :   0.1633 0.1633 0.1633  plane waves:     956
 k-point 35 :   0.1531 0.1531 0.1531  plane waves:     953
 k-point 36 :   0.1429 0.1429 0.1429  plane waves:     959
 k-point 37 :   0.1327 0.1327 0.1327  plane waves:     953
 k-point 38 :   0.1224 0.1224 0.1224  plane waves:     953
 k-point 39 :   0.1122 0.1122 0.1122  plane waves:     950
 k-point 40 :   0.1020 0.1020 0.1020  plane waves:     950
 k-point 41 :   0.0918 0.0918 0.0918  plane waves:     950
 k-point 42 :   0.0816 0.0816 0.0816  plane waves:     950
 k-point 43 :   0.0714 0.0714 0.0714  plane waves:     950
 k-point 44 :   0.0612 0.0612 0.0612  plane waves:     944
 k-point 45 :   0.0510 0.0510 0.0510  plane waves:     944
 k-point 46 :   0.0408 0.0408 0.0408  plane waves:     944
 k-point 47 :   0.0306 0.0306 0.0306  plane waves:     941
 k-point 48 :   0.0204 0.0204 0.0204  plane waves:     941
 k-point 49 :   0.0102 0.0102 0.0102  plane waves:     941
 k-point 50 :   0.0000 0.0000 0.0000  plane waves:     941
 k-point 51 :   0.0000 0.0000 0.0000  plane waves:     941
 k-point 52 :   0.0102 0.0000 0.0102  plane waves:     941
 k-point 53 :   0.0204 0.0000 0.0204  plane waves:     941
 k-point 54 :   0.0306 0.0000 0.0306  plane waves:     941
 k-point 55 :   0.0408 0.0000 0.0408  plane waves:     945
 k-point 56 :   0.0510 0.0000 0.0510  plane waves:     945
 k-point 57 :   0.0612 0.0000 0.0612  plane waves:     945
 k-point 58 :   0.0714 0.0000 0.0714  plane waves:     953
 k-point 59 :   0.0816 0.0000 0.0816  plane waves:     953
 k-point 60 :   0.0918 0.0000 0.0918  plane waves:     953
 k-point 61 :   0.1020 0.0000 0.1020  plane waves:     953
 k-point 62 :   0.1122 0.0000 0.1122  plane waves:     945
 k-point 63 :   0.1224 0.0000 0.1224  plane waves:     949
 k-point 64 :   0.1327 0.0000 0.1327  plane waves:     950
 k-point 65 :   0.1429 0.0000 0.1429  plane waves:     950
 k-point 66 :   0.1531 0.0000 0.1531  plane waves:     962
 k-point 67 :   0.1633 0.0000 0.1633  plane waves:     966
 k-point 68 :   0.1735 0.0000 0.1735  plane waves:     966
 k-point 69 :   0.1837 0.0000 0.1837  plane waves:     966
 k-point 70 :   0.1939 0.0000 0.1939  plane waves:     966
 k-point 71 :   0.2041 0.0000 0.2041  plane waves:     966
 k-point 72 :   0.2143 0.0000 0.2143  plane waves:     974
 k-point 73 :   0.2245 0.0000 0.2245  plane waves:     978
 k-point 74 :   0.2347 0.0000 0.2347  plane waves:     982
 k-point 75 :   0.2449 0.0000 0.2449  plane waves:     982
 k-point 76 :   0.2551 0.0000 0.2551  plane waves:     982
 k-point 77 :   0.2653 0.0000 0.2653  plane waves:     982
 k-point 78 :   0.2755 0.0000 0.2755  plane waves:     982
 k-point 79 :   0.2857 0.0000 0.2857  plane waves:     974
 k-point 80 :   0.2959 0.0000 0.2959  plane waves:     982
 k-point 81 :   0.3061 0.0000 0.3061  plane waves:     974
 k-point 82 :   0.3163 0.0000 0.3163  plane waves:     974
 k-point 83 :   0.3265 0.0000 0.3265  plane waves:     970
 k-point 84 :   0.3367 0.0000 0.3367  plane waves:     962
 k-point 85 :   0.3469 0.0000 0.3469  plane waves:     966
 k-point 86 :   0.3571 0.0000 0.3571  plane waves:     974
 k-point 87 :   0.3673 0.0000 0.3673  plane waves:     974
 k-point 88 :   0.3776 0.0000 0.3776  plane waves:     974
 k-point 89 :   0.3878 0.0000 0.3878  plane waves:     974
 k-point 90 :   0.3980 0.0000 0.3980  plane waves:     978
 k-point 91 :   0.4082 0.0000 0.4082  plane waves:     978
 k-point 92 :   0.4184 0.0000 0.4184  plane waves:     978
 k-point 93 :   0.4286 0.0000 0.4286  plane waves:     978
 k-point 94 :   0.4388 0.0000 0.4388  plane waves:     978
 k-point 95 :   0.4490 0.0000 0.4490  plane waves:     974
 k-point 96 :   0.4592 0.0000 0.4592  plane waves:     974
 k-point 97 :   0.4694 0.0000 0.4694  plane waves:     982
 k-point 98 :   0.4796 0.0000 0.4796  plane waves:     982
 k-point 99 :   0.4898 0.0000 0.4898  plane waves:     982
 k-point ** :   0.5000 0.0000 0.5000  plane waves:     982

 maximum and minimum number of plane-waves per node :       982      941

 maximum number of plane-waves:       982
 maximum index in each direction: 
   IXMAX=    6   IYMAX=    6   IZMAX=    6
   IXMIN=   -7   IYMIN=   -7   IZMIN=   -7


 serial   3D FFT for wavefunctions
 parallel 3D FFT for charge:
    minimum data exchange during FFTs selected (reduces bandwidth)


 total amount of memory used by VASP MPI-rank0    46535. kBytes
=======================================================================

   base      :      30000. kBytes
   nonl-proj :      10515. kBytes
   fftplans  :        272. kBytes
   grid      :        626. kBytes
   one-center:         16. kBytes
   wavefun   :       5106. kBytes
 
     INWAV:  cpu time    0.2417: real time    0.4866
 initial charge density was supplied:
 number of electron       7.9999998 magnetization 
 keeping initial charge density in first step


--------------------------------------------------------------------------------------------------------


 Maximum index for augmentation-charges          721 (set IRDMAX)


--------------------------------------------------------------------------------------------------------


 First call to EWALD:  gamma=   0.499
 Maximum number of real-space cells 3x 3x 3
 Maximum number of reciprocal cells 3x 3x 3

    FEWALD:  cpu time    0.0014: real time    0.0015


--------------------------------------- Iteration      1(   1)  ---------------------------------------


    POTLOK:  cpu time    0.0049: real time    0.0141
    SETDIJ:  cpu time    0.0039: real time    0.0040
    TRIAL :  cpu time    0.9952: real time    2.0074
    CORREC:  cpu time    0.0008: real time    0.0008
    --------------------------------------------
      LOOP:  cpu time    1.0132: real time    2.0385

 eigenvalue-minimisations  :     0
 total energy-change (2. order) : 0.5363680E+02  (-0.1735568E+02)
 number of electron       7.9999998 magnetization 
 augmentation part        7.9999998 magnetization 

 Free energy of the ion-electron system (eV)
  ---------------------------------------------------
  alpha Z        PSCENC =        17.10940282
  Ewald energy   TEWEN  =      -220.32663596
  -Hartree energ DENC   =       -15.48905703
  -exchange      EXHF   =         0.00000000
  -V(xc)+E(xc)   XCENC  =       -14.36573775
  PAW double counting   =       470.53600263     -442.53245514
  entropy T*S    EENTRO =         0.00005798
  eigenvalues    EBANDS =        48.71373945
  atomic energy  EATOM  =       209.99145059
  ---------------------------------------------------
  free energy    TOTEN  =        53.63679782 eV

  energy without entropy =       53.63673984  energy(sigma->0) =       53.63677849


--------------------------------------------------------------------------------------------------------




--------------------------------------- Iteration      1(   2)  ---------------------------------------


    TRIAL :  cpu time    0.9833: real time    1.9713
    CORREC:  cpu time    0.0008: real time    0.0008
    --------------------------------------------
      LOOP:  cpu time    0.9851: real time    1.9741

 eigenvalue-minimisations  :     0
 total energy-change (2. order) :-0.1050597E+02  (-0.9731638E+01)
 number of electron       7.9999998 magnetization 
 augmentation part        7.9999998 magnetization 

 Free energy of the ion-electron system (eV)
  ---------------------------------------------------
  alpha Z        PSCENC =        17.10940282
  Ewald energy   TEWEN  =      -220.32663596
  -Hartree energ DENC   =       -15.48905703
  -exchange      EXHF   =         0.00000000
  -V(xc)+E(xc)   XCENC  =       -14.36573775
  PAW double counting   =       470.53600263     -442.53245514
  entropy T*S    EENTRO =        -0.00021427
  eigenvalues    EBANDS =        38.20780001
  atomic energy  EATOM  =       209.99145059
  ---------------------------------------------------
  free energy    TOTEN  =        43.13082814 eV

  energy without entropy =       43.13104241  energy(sigma->0) =       43.13089956


--------------------------------------------------------------------------------------------------------




--------------------------------------- Iteration      1(   3)  ---------------------------------------


    TRIAL :  cpu time    0.9788: real time    1.9726
    CORREC:  cpu time    0.0010: real time    0.0010
    --------------------------------------------
      LOOP:  cpu time    0.9801: real time    1.9760

 eigenvalue-minimisations  :     0
 total energy-change (2. order) :-0.1090029E+02  (-0.1290197E+02)
 number of electron       7.9999998 magnetization 
 augmentation part        7.9999998 magnetization 

 Free energy of the ion-electron system (eV)
  ---------------------------------------------------
  alpha Z        PSCENC =        17.10940282
  Ewald energy   TEWEN  =      -220.32663596
  -Hartree energ DENC   =       -15.48905703
  -exchange      EXHF   =         0.00000000
  -V(xc)+E(xc)   XCENC  =       -14.36573775
  PAW double counting   =       470.53600263     -442.53245514
  entropy T*S    EENTRO =         0.00016951
  eigenvalues    EBANDS =        27.30778300
  atomic energy  EATOM  =       209.99145059
  ---------------------------------------------------
  free energy    TOTEN  =        32.23053888 eV

  energy without entropy =       32.23036937  energy(sigma->0) =       32.23048238


--------------------------------------------------------------------------------------------------------




--------------------------------------- Iteration      1(   4)  ---------------------------------------


    TRIAL :  cpu time    0.9749: real time    1.9560
    CORREC:  cpu time    0.0009: real time    0.0009
    --------------------------------------------
      LOOP:  cpu time    0.9771: real time    1.9592

 eigenvalue-minimisations  :     0
 total energy-change (2. order) :-0.1465617E+02  (-0.1053374E+02)
 number of electron       7.9999998 magnetization 
 augmentation part        7.9999998 magnetization 

 Free energy of the ion-electron system (eV)
  ---------------------------------------------------
  alpha Z        PSCENC =        17.10940282
  Ewald energy   TEWEN  =      -220.32663596
  -Hartree energ DENC   =       -15.48905703
  -exchange      EXHF   =         0.00000000
  -V(xc)+E(xc)   XCENC  =       -14.36573775
  PAW double counting   =       470.53600263     -442.53245514
  entropy T*S    EENTRO =         0.00016028
  eigenvalues    EBANDS =        12.65122993
  atomic energy  EATOM  =       209.99145059
  ---------------------------------------------------
  free energy    TOTEN  =        17.57436958 eV

  energy without entropy =       17.57420930  energy(sigma->0) =       17.57431616


--------------------------------------------------------------------------------------------------------




--------------------------------------- Iteration      1(   5)  ---------------------------------------


    TRIAL :  cpu time    0.9644: real time    1.9415
    CORREC:  cpu time    0.0009: real time    0.0009
    --------------------------------------------
      LOOP:  cpu time    0.9657: real time    1.9428

 eigenvalue-minimisations  :     0
 total energy-change (2. order) :-0.9253088E+01  (-0.7828321E+01)
 number of electron       7.9999998 magnetization 
 augmentation part        7.9999998 magnetization 

 Free energy of the ion-electron system (eV)
  ---------------------------------------------------
  alpha Z        PSCENC =        17.10940282
  Ewald energy   TEWEN  =      -220.32663596
  -Hartree energ DENC   =       -15.48905703
  -exchange      EXHF   =         0.00000000
  -V(xc)+E(xc)   XCENC  =       -14.36573775
  PAW double counting   =       470.53600263     -442.53245514
  entropy T*S    EENTRO =         0.00005312
  eigenvalues    EBANDS =         3.39815117
  atomic energy  EATOM  =       209.99145059
  ---------------------------------------------------
  free energy    TOTEN  =         8.32128160 eV

  energy without entropy =        8.32122848  energy(sigma->0) =        8.32126389


--------------------------------------------------------------------------------------------------------




--------------------------------------- Iteration      1(   6)  ---------------------------------------


    TRIAL :  cpu time    0.9796: real time    1.9658
    CORREC:  cpu time    0.0009: real time    0.0009
    --------------------------------------------
      LOOP:  cpu time    0.9812: real time    1.9722

 eigenvalue-minimisations  :     0
 total energy-change (2. order) :-0.6748733E+01  (-0.3418583E+01)
 number of electron       7.9999998 magnetization 
 augmentation part        7.9999998 magnetization 

 Free energy of the ion-electron system (eV)
  ---------------------------------------------------
  alpha Z        PSCENC =        17.10940282
  Ewald energy   TEWEN  =      -220.32663596
  -Hartree energ DENC   =       -15.48905703
  -exchange      EXHF   =         0.00000000
  -V(xc)+E(xc)   XCENC  =       -14.36573775
  PAW double counting   =       470.53600263     -442.53245514
  entropy T*S    EENTRO =        -0.00037174
  eigenvalues    EBANDS =        -3.35047458
  atomic energy  EATOM  =       209.99145059
  ---------------------------------------------------
  free energy    TOTEN  =         1.57254868 eV

  energy without entropy =        1.57292042  energy(sigma->0) =        1.57267260


--------------------------------------------------------------------------------------------------------




--------------------------------------- Iteration      1(   7)  ---------------------------------------


    TRIAL :  cpu time    0.9742: real time    1.9564
    CORREC:  cpu time    0.0007: real time    0.0100
    --------------------------------------------
      LOOP:  cpu time    0.9752: real time    1.9688

 eigenvalue-minimisations  :     0
 total energy-change (2. order) :-0.2821312E+01  (-0.1588949E+01)
 number of electron       7.9999998 magnetization 
 augmentation part        7.9999998 magnetization 

 Free energy of the ion-electron system (eV)
  ---------------------------------------------------
  alpha Z        PSCENC =        17.10940282
  Ewald energy   TEWEN  =      -220.32663596
  -Hartree energ DENC   =       -15.48905703
  -exchange      EXHF   =         0.00000000
  -V(xc)+E(xc)   XCENC  =       -14.36573775
  PAW double counting   =       470.53600263     -442.53245514
  entropy T*S    EENTRO =         0.00024995
  eigenvalues    EBANDS =        -6.17136204
  atomic energy  EATOM  =       209.99145059
  ---------------------------------------------------
  free energy    TOTEN  =        -1.24876363 eV

  energy without entropy =       -1.24901358  energy(sigma->0) =       -1.24884695


--------------------------------------------------------------------------------------------------------




--------------------------------------- Iteration      1(   8)  ---------------------------------------


    TRIAL :  cpu time    0.9691: real time    1.9440
    CORREC:  cpu time    0.0009: real time    0.0008
    --------------------------------------------
      LOOP:  cpu time    0.9701: real time    1.9451

 eigenvalue-minimisations  :     0
 total energy-change (2. order) :-0.1328940E+01  (-0.7043379E+00)
 number of electron       7.9999998 magnetization 
 augmentation part        7.9999998 magnetization 

 Free energy of the ion-electron system (eV)
  ---------------------------------------------------
  alpha Z        PSCENC =        17.10940282
  Ewald energy   TEWEN  =      -220.32663596
  -Hartree energ DENC   =       -15.48905703
  -exchange      EXHF   =         0.00000000
  -V(xc)+E(xc)   XCENC  =       -14.36573775
  PAW double counting   =       470.53600263     -442.53245514
  entropy T*S    EENTRO =         0.00037031
  eigenvalues    EBANDS =        -7.50092422
  atomic energy  EATOM  =       209.99145059
  ---------------------------------------------------
  free energy    TOTEN  =        -2.57770413 eV

  energy without entropy =       -2.57807444  energy(sigma->0) =       -2.57782756


--------------------------------------------------------------------------------------------------------




--------------------------------------- Iteration      1(   9)  ---------------------------------------


    TRIAL :  cpu time    0.9685: real time    1.9465
    CORREC:  cpu time    0.0009: real time    0.0008
    --------------------------------------------
      LOOP:  cpu time    0.9695: real time    1.9475

 eigenvalue-minimisations  :     0
 total energy-change (2. order) :-0.6055887E+00  (-0.3252275E+00)
 number of electron       7.9999998 magnetization 
 augmentation part        7.9999998 magnetization 

 Free energy of the ion-electron system (eV)
  ---------------------------------------------------
  alpha Z        PSCENC =        17.10940282
  Ewald energy   TEWEN  =      -220.32663596
  -Hartree energ DENC   =       -15.48905703
  -exchange      EXHF   =         0.00000000
  -V(xc)+E(xc)   XCENC  =       -14.36573775
  PAW double counting   =       470.53600263     -442.53245514
  entropy T*S    EENTRO =         0.00060859
  eigenvalues    EBANDS =        -8.10663330
  atomic energy  EATOM  =       209.99145059
  ---------------------------------------------------
  free energy    TOTEN  =        -3.18329284 eV

  energy without entropy =       -3.18390143  energy(sigma->0) =       -3.18349570


--------------------------------------------------------------------------------------------------------




--------------------------------------- Iteration      1(  10)  ---------------------------------------


    TRIAL :  cpu time    0.9736: real time    1.9641
    CORREC:  cpu time    0.0010: real time    0.0010
    --------------------------------------------
      LOOP:  cpu time    0.9748: real time    1.9652

 eigenvalue-minimisations  :     0
 total energy-change (2. order) :-0.2763494E+00  (-0.1413911E+00)
 number of electron       7.9999998 magnetization 
 augmentation part        7.9999998 magnetization 

 Free energy of the ion-electron system (eV)
  ---------------------------------------------------
  alpha Z        PSCENC =        17.10940282
  Ewald energy   TEWEN  =      -220.32663596
  -Hartree energ DENC   =       -15.48905703
  -exchange      EXHF   =         0.00000000
  -V(xc)+E(xc)   XCENC  =       -14.36573775
  PAW double counting   =       470.53600263     -442.53245514
  entropy T*S    EENTRO =         0.00059226
  eigenvalues    EBANDS =        -8.38322095
  atomic energy  EATOM  =       209.99145059
  ---------------------------------------------------
  free energy    TOTEN  =        -3.45964221 eV

  energy without entropy =       -3.46023447  energy(sigma->0) =       -3.45983963


--------------------------------------------------------------------------------------------------------




--------------------------------------- Iteration      1(  11)  ---------------------------------------


    TRIAL :  cpu time    0.9727: real time    1.9543
    CORREC:  cpu time    0.0009: real time    0.0008
    --------------------------------------------
      LOOP:  cpu time    0.9742: real time    1.9567

 eigenvalue-minimisations  :     0
 total energy-change (2. order) :-0.1169046E+00  (-0.5613799E-01)
 number of electron       7.9999998 magnetization 
 augmentation part        7.9999998 magnetization 

 Free energy of the ion-electron system (eV)
  ---------------------------------------------------
  alpha Z        PSCENC =        17.10940282
  Ewald energy   TEWEN  =      -220.32663596
  -Hartree energ DENC   =       -15.48905703
  -exchange      EXHF   =         0.00000000
  -V(xc)+E(xc)   XCENC  =       -14.36573775
  PAW double counting   =       470.53600263     -442.53245514
  entropy T*S    EENTRO =         0.00026241
  eigenvalues    EBANDS =        -8.50010923
  atomic energy  EATOM  =       209.99145059
  ---------------------------------------------------
  free energy    TOTEN  =        -3.57654683 eV

  energy without entropy =       -3.57680923  energy(sigma->0) =       -3.57663430


--------------------------------------------------------------------------------------------------------




--------------------------------------- Iteration      1(  12)  ---------------------------------------


    TRIAL :  cpu time    0.9710: real time    1.9515
    CORREC:  cpu time    0.0008: real time    0.0008
    --------------------------------------------
      LOOP:  cpu time    0.9720: real time    1.9525

 eigenvalue-minimisations  :     0
 total energy-change (2. order) :-0.4539503E-01  (-0.2042406E-01)
 number of electron       7.9999998 magnetization 
 augmentation part        7.9999998 magnetization 

 Free energy of the ion-electron system (eV)
  ---------------------------------------------------
  alpha Z        PSCENC =        17.10940282
  Ewald energy   TEWEN  =      -220.32663596
  -Hartree energ DENC   =       -15.48905703
  -exchange      EXHF   =         0.00000000
  -V(xc)+E(xc)   XCENC  =       -14.36573775
  PAW double counting   =       470.53600263     -442.53245514
  entropy T*S    EENTRO =         0.00064611
  eigenvalues    EBANDS =        -8.54517441
  atomic energy  EATOM  =       209.99145059
  ---------------------------------------------------
  free energy    TOTEN  =        -3.62194186 eV

  energy without entropy =       -3.62258797  energy(sigma->0) =       -3.62215723


--------------------------------------------------------------------------------------------------------




--------------------------------------- Iteration      1(  13)  ---------------------------------------


    TRIAL :  cpu time    0.9696: real time    1.9527
    CORREC:  cpu time    0.0005: real time    0.0005
    --------------------------------------------
      LOOP:  cpu time    0.9703: real time    1.9535

 eigenvalue-minimisations  :     0
 total energy-change (2. order) :-0.1583041E-01  (-0.6902331E-02)
 number of electron       7.9999998 magnetization 
 augmentation part        7.9999998 magnetization 

 Free energy of the ion-electron system (eV)
  ---------------------------------------------------
  alpha Z        PSCENC =        17.10940282
  Ewald energy   TEWEN  =      -220.32663596
  -Hartree energ DENC   =       -15.48905703
  -exchange      EXHF   =         0.00000000
  -V(xc)+E(xc)   XCENC  =       -14.36573775
  PAW double counting   =       470.53600263     -442.53245514
  entropy T*S    EENTRO =         0.00000000
  eigenvalues    EBANDS =        -8.56138853
  atomic energy  EATOM  =       209.99145059
  ---------------------------------------------------
  free energy    TOTEN  =        -3.63777227 eV

  energy without entropy =       -3.63777227  energy(sigma->0) =       -3.63777227


--------------------------------------------------------------------------------------------------------




--------------------------------------- Iteration      1(  14)  ---------------------------------------


    TRIAL :  cpu time    0.9690: real time    1.9539
    CORREC:  cpu time    0.0009: real time    0.0009
    --------------------------------------------
      LOOP:  cpu time    0.9700: real time    1.9550

 eigenvalue-minimisations  :     0
 total energy-change (2. order) :-0.5748120E-02  (-0.2143854E-02)
 number of electron       7.9999998 magnetization 
 augmentation part        7.9999998 magnetization 

 Free energy of the ion-electron system (eV)
  ---------------------------------------------------
  alpha Z        PSCENC =        17.10940282
  Ewald energy   TEWEN  =      -220.32663596
  -Hartree energ DENC   =       -15.48905703
  -exchange      EXHF   =         0.00000000
  -V(xc)+E(xc)   XCENC  =       -14.36573775
  PAW double counting   =       470.53600263     -442.53245514
  entropy T*S    EENTRO =         0.00062574
  eigenvalues    EBANDS =        -8.56649053
  atomic energy  EATOM  =       209.99145059
  ---------------------------------------------------
  free energy    TOTEN  =        -3.64352038 eV

  energy without entropy =       -3.64414613  energy(sigma->0) =       -3.64372897


--------------------------------------------------------------------------------------------------------




--------------------------------------- Iteration      1(  15)  ---------------------------------------


    TRIAL :  cpu time    0.9712: real time    1.9487
    CORREC:  cpu time    0.0008: real time    0.0015
    --------------------------------------------
      LOOP:  cpu time    0.9722: real time    1.9504

 eigenvalue-minimisations  :     0
 total energy-change (2. order) :-0.1200748E-02  (-0.6187936E-03)
 number of electron       7.9999998 magnetization 
 augmentation part        7.9999998 magnetization 

 Free energy of the ion-electron system (eV)
  ---------------------------------------------------
  alpha Z        PSCENC =        17.10940282
  Ewald energy   TEWEN  =      -220.32663596
  -Hartree energ DENC   =       -15.48905703
  -exchange      EXHF   =         0.00000000
  -V(xc)+E(xc)   XCENC  =       -14.36573775
  PAW double counting   =       470.53600263     -442.53245514
  entropy T*S    EENTRO =         0.00062236
  eigenvalues    EBANDS =        -8.56831702
  atomic energy  EATOM  =       209.99145059
  ---------------------------------------------------
  free energy    TOTEN  =        -3.64472113 eV

  energy without entropy =       -3.64534350  energy(sigma->0) =       -3.64492859


--------------------------------------------------------------------------------------------------------




--------------------------------------- Iteration      1(  16)  ---------------------------------------


    TRIAL :  cpu time    0.9716: real time    1.9521
    CORREC:  cpu time    0.0004: real time    0.0096
    --------------------------------------------
      LOOP:  cpu time    0.9721: real time    1.9618

 eigenvalue-minimisations  :     0
 total energy-change (2. order) :-0.4599161E-03  (-0.1617561E-03)
 number of electron       7.9999998 magnetization 
 augmentation part        7.9999998 magnetization 

 Free energy of the ion-electron system (eV)
  ---------------------------------------------------
  alpha Z        PSCENC =        17.10940282
  Ewald energy   TEWEN  =      -220.32663596
  -Hartree energ DENC   =       -15.48905703
  -exchange      EXHF   =         0.00000000
  -V(xc)+E(xc)   XCENC  =       -14.36573775
  PAW double counting   =       470.53600263     -442.53245514
  entropy T*S    EENTRO =         0.00000000
  eigenvalues    EBANDS =        -8.56877356
  atomic energy  EATOM  =       209.99145059
  ---------------------------------------------------
  free energy    TOTEN  =        -3.64518105 eV

  energy without entropy =       -3.64518105  energy(sigma->0) =       -3.64518105


--------------------------------------------------------------------------------------------------------




--------------------------------------- Iteration      1(  17)  ---------------------------------------


    TRIAL :  cpu time    0.9795: real time    1.9647
    CORREC:  cpu time    0.0009: real time    0.0009
    --------------------------------------------
      LOOP:  cpu time    0.9806: real time    1.9658

 eigenvalue-minimisations  :     0
 total energy-change (2. order) :-0.5451237E-03  (-0.3644546E-04)
 number of electron       7.9999998 magnetization 
 augmentation part        7.9999998 magnetization 

 Free energy of the ion-electron system (eV)
  ---------------------------------------------------
  alpha Z        PSCENC =        17.10940282
  Ewald energy   TEWEN  =      -220.32663596
  -Hartree energ DENC   =       -15.48905703
  -exchange      EXHF   =         0.00000000
  -V(xc)+E(xc)   XCENC  =       -14.36573775
  PAW double counting   =       470.53600263     -442.53245514
  entropy T*S    EENTRO =         0.00061955
  eigenvalues    EBANDS =        -8.56869632
  atomic energy  EATOM  =       209.99145059
  ---------------------------------------------------
  free energy    TOTEN  =        -3.64572617 eV

  energy without entropy =       -3.64634572  energy(sigma->0) =       -3.64593269


--------------------------------------------------------------------------------------------------------




--------------------------------------- Iteration      1(  18)  ---------------------------------------


    TRIAL :  cpu time    0.9800: real time    1.9703
    CORREC:  cpu time    0.0008: real time    0.0008
    --------------------------------------------
      LOOP:  cpu time    0.9819: real time    1.9735

 eigenvalue-minimisations  :     0
 total energy-change (2. order) : 0.4040440E-03  (-0.6182877E-05)
 number of electron       7.9999998 magnetization 
 augmentation part        7.9999998 magnetization 

 Free energy of the ion-electron system (eV)
  ---------------------------------------------------
  alpha Z        PSCENC =        17.10940282
  Ewald energy   TEWEN  =      -220.32663596
  -Hartree energ DENC   =       -15.48905703
  -exchange      EXHF   =         0.00000000
  -V(xc)+E(xc)   XCENC  =       -14.36573775
  PAW double counting   =       470.53600263     -442.53245514
  entropy T*S    EENTRO =         0.00061911
  eigenvalues    EBANDS =        -8.56891182
  atomic energy  EATOM  =       209.99145059
  ---------------------------------------------------
  free energy    TOTEN  =        -3.64532213 eV

  energy without entropy =       -3.64594124  energy(sigma->0) =       -3.64552850


--------------------------------------------------------------------------------------------------------




--------------------------------------- Iteration      1(  19)  ---------------------------------------


    TRIAL :  cpu time    0.9767: real time    1.9695
    CORREC:  cpu time    0.0009: real time    0.0009
    EDDIAG:  cpu time    0.6419: real time    1.2963
    --------------------------------------------
      LOOP:  cpu time    1.6196: real time    3.2668

 eigenvalue-minimisations  :     0
 total energy-change (2. order) :-0.3578193E-05  (-0.4506377E-06)
 number of electron       7.9999998 magnetization 
 augmentation part        7.9999998 magnetization 

 Free energy of the ion-electron system (eV)
  ---------------------------------------------------
  alpha Z        PSCENC =        17.10940282
  Ewald energy   TEWEN  =      -220.32663596
  -Hartree energ DENC   =       -15.48905703
  -exchange      EXHF   =         0.00000000
  -V(xc)+E(xc)   XCENC  =       -14.36573775
  PAW double counting   =       470.53600263     -442.53245514
  entropy T*S    EENTRO =         0.00061893
  eigenvalues    EBANDS =        -8.56891496
  atomic energy  EATOM  =       209.99145059
  ---------------------------------------------------
  free energy    TOTEN  =        -3.64532571 eV

  energy without entropy =       -3.64594464  energy(sigma->0) =       -3.64553202


--------------------------------------------------------------------------------------------------------


  average scaling for gradient   1.5110


 average (electrostatic) potential at core
  the test charge radii are     1.1631
  (the norm of the test charge is              1.0000)
       1 -32.8731       2 -32.8731
 
 
 
 E-fermi :   3.5459     XC(G=0):  -9.1805     alpha+bet : -9.2781


 k-point     1 :       0.5000    0.5000    0.5000
  band No.  band energies     occupation 
      1      -6.8950      2.00000
      2      -3.9284      2.00000
      3       2.0842      2.00000
      4       2.0842      2.00000
      5       4.0492     -0.00000
      6       7.4255      0.00000
      7       7.4255      0.00000
      8      10.9149      0.00000
      9      14.2951      0.00000
     10      14.8513      0.00000
     11      14.9264      0.00000
     12      14.9264      0.00000
     13      16.0419      0.00000
     14      16.0419      0.00000
     15      22.5769      0.00000
     16      23.8407      0.00000
     17      25.3040      0.00000
     18      25.3040      0.00000
     19      25.4695      0.00000
     20      25.4695      0.00000
     21      28.7848      0.00000
     22      29.9704      0.00000
     23      30.2498      0.00000
     24      30.2498      0.00000
     25      30.7693      0.00000
     26      30.7693      0.00000
     27      31.6748      0.00000
     28      35.1024      0.00000
     29      35.1024      0.00000
     30      35.2960      0.00000
     31      35.2960      0.00000
     32      36.1145      0.00000
     33      37.2400      0.00000
     34      37.3739      0.00000
     35      42.4916      0.00000
     36      42.4918      0.00000
     37      42.7475      0.00000
     38      43.6929      0.00000
     39      43.6930      0.00000
     40      44.6997      0.00000
     41      48.2186      0.00000
     42      48.2487      0.00000
     43      50.4530      0.00000
     44      50.6755      0.00000
     45      51.2326      0.00000
     46      54.2965      0.00000
     47      54.4866      0.00000
     48      56.8435      0.00000
     49      58.8182      0.00000
     50      58.9786      0.00000
     51      59.0089      0.00000
     52      62.9296      0.00000
     53      64.0600      0.00000
     54      64.3394      0.00000
     55      68.9748      0.00000
     56      69.2077      0.00000

 k-point     2 :       0.4898    0.4898    0.4898
  band No.  band energies     occupation 
      1      -6.8999      2.00000
      2      -3.9209      2.00000
      3       2.0851      2.00000
      4       2.0851      2.00000
      5       4.0500     -0.00000
      6       7.4258      0.00000
      7       7.4258      0.00000
      8      10.9160      0.00000
      9      14.2258      0.00000
     10      14.8910      0.00000
     11      14.8910      0.00000
     12      14.9188      0.00000
     13      16.0813      0.00000
     14      16.0813      0.00000
     15      22.5081      0.00000
     16      23.9145      0.00000
     17      25.0777      0.00000
     18      25.0777      0.00000
     19      25.6977      0.00000
     20      25.6977      0.00000
     21      28.7041      0.00000
     22      30.0517      0.00000
     23      30.2485      0.00000
     24      30.2485      0.00000
     25      30.7676      0.00000
     26      30.7676      0.00000
     27      31.6724      0.00000
     28      35.1044      0.00000
     29      35.1044      0.00000
     30      35.3028      0.00000
     31      35.3028      0.00000
     32      36.1066      0.00000
     33      37.2453      0.00000
     34      37.3864      0.00000
     35      42.4916      0.00000
     36      42.4918      0.00000
     37      42.7487      0.00000
     38      43.6922      0.00000
     39      43.6922      0.00000
     40      44.7001      0.00000
     41      48.0374      0.00000
     42      48.0482      0.00000
     43      50.2533      0.00000
     44      50.4153      0.00000
     45      50.8348      0.00000
     46      54.2073      0.00000
     47      54.3267      0.00000
     48      55.9305      0.00000
     49      57.8585      0.00000
     50      58.6797      0.00000
     51      58.6872      0.00000
     52      62.5757      0.00000
     53      63.9160      0.00000
     54      64.0917      0.00000
     55      68.3642      0.00000
     56      68.7949      0.00000

 k-point     3 :       0.4796    0.4796    0.4796
  band No.  band energies     occupation 
      1      -6.9144      2.00000
      2      -3.8985      2.00000
      3       2.0879      2.00000
      4       2.0879      2.00000
      5       4.0525     -0.00000
      6       7.4266      0.00000
      7       7.4266      0.00000
      8      10.9193      0.00000
      9      14.0722      0.00000
     10      14.7966      0.00000
     11      14.7966      0.00000
     12      15.0672      0.00000
     13      16.1872      0.00000
     14      16.1872      0.00000
     15      22.3366      0.00000
     16      24.1013      0.00000
     17      24.7874      0.00000
     18      24.7874      0.00000
     19      25.9931      0.00000
     20      25.9931      0.00000
     21      28.5069      0.00000
     22      30.2445      0.00000
     23      30.2445      0.00000
     24      30.2511      0.00000
     25      30.7620      0.00000
     26      30.7620      0.00000
     27      31.6651      0.00000
     28      35.1105      0.00000
     29      35.1105      0.00000
     30      35.3225      0.00000
     31      35.3225      0.00000
     32      36.0840      0.00000
     33      37.2612      0.00000
     34      37.4231      0.00000
     35      42.4931      0.00000
     36      42.4987      0.00000
     37      42.7503      0.00000
     38      43.6910      0.00000
     39      43.6911      0.00000
     40      44.6976      0.00000
     41      47.7900      0.00000
     42      47.7975      0.00000
     43      49.9267      0.00000
     44      49.9541      0.00000
     45      50.1863      0.00000
     46      52.8577      0.00000
     47      53.5165      0.00000
     48      54.5199      0.00000
     49      56.6857      0.00000
     50      58.4011      0.00000
     51      59.4130      0.00000
     52      59.6753      0.00000
     53      62.9645      0.00000
     54      64.0609      0.00000
     55      66.6599      0.00000
     56      66.8445      0.00000

 k-point     4 :       0.4694    0.4694    0.4694
  band No.  band energies     occupation 
      1      -6.9381      2.00000
      2      -3.8616      2.00000
      3       2.0925      2.00000
      4       2.0925      2.00000
      5       4.0565     -0.00000
      6       7.4280      0.00000
      7       7.4280      0.00000
      8      10.9247      0.00000
      9      13.8886      0.00000
     10      14.6658      0.00000
     11      14.6658      0.00000
     12      15.2412      0.00000
     13      16.3372      0.00000
     14      16.3372      0.00000
     15      22.1152      0.00000
     16      24.3482      0.00000
     17      24.4956      0.00000
     18      24.4956      0.00000
     19      26.2932      0.00000
     20      26.2932      0.00000
     21      28.2553      0.00000
     22      30.2379      0.00000
     23      30.2380      0.00000
     24      30.5062      0.00000
     25      30.7531      0.00000
     26      30.7531      0.00000
     27      31.6533      0.00000
     28      35.1220      0.00000
     29      35.1239      0.00000
     30      35.3542      0.00000
     31      35.3548      0.00000
     32      36.0500      0.00000
     33      37.2959      0.00000
     34      37.4812      0.00000
     35      42.6024      0.00000
     36      42.6910      0.00000
     37      43.0243      0.00000
     38      43.9264      0.00000
     39      44.0789      0.00000
     40      44.2676      0.00000
     41      47.5022      0.00000
     42      47.8514      0.00000
     43      49.9898      0.00000
     44      51.0582      0.00000
     45      52.3758      0.00000
     46      52.9555      0.00000
     47      53.6835      0.00000
     48      55.9717      0.00000
     49      58.5516      0.00000
     50      59.0807      0.00000
     51      60.0478      0.00000
     52      60.1814      0.00000
     53      62.3144      0.00000
     54      64.0122      0.00000
     55      64.4675      0.00000
     56      69.9342      0.00000

 k-point     5 :       0.4592    0.4592    0.4592
  band No.  band energies     occupation 
      1      -6.9703      2.00000
      2      -3.8109      2.00000
      3       2.0990      2.00000
      4       2.0990      2.00000
      5       4.0622     -0.00000
      6       7.4299      0.00000
      7       7.4299      0.00000
      8      10.9320      0.00000
      9      13.6941      0.00000
     10      14.5158      0.00000
     11      14.5158      0.00000
     12      15.4213      0.00000
     13      16.5143      0.00000
     14      16.5143      0.00000
     15      21.8747      0.00000
     16      24.2052      0.00000
     17      24.2052      0.00000
     18      24.6243      0.00000
     19      26.5949      0.00000
     20      26.5949      0.00000
     21      27.9816      0.00000
     22      30.2291      0.00000
     23      30.2291      0.00000
     24      30.7410      0.00000
     25      30.7410      0.00000
     26      30.7850      0.00000
     27      31.6366      0.00000
     28      35.1386      0.00000
     29      35.1386      0.00000
     30      35.3967      0.00000
     31      35.3967      0.00000
     32      36.0089      0.00000
     33      37.3242      0.00000
     34      37.5564      0.00000
     35      42.4905      0.00000
     36      42.4905      0.00000
     37      42.7657      0.00000
     38      43.6774      0.00000
     39      43.6775      0.00000
     40      44.7087      0.00000
     41      47.1943      0.00000
     42      47.1949      0.00000
     43      49.6637      0.00000
     44      50.4490      0.00000
     45      50.4622      0.00000
     46      53.4136      0.00000
     47      53.6490      0.00000
     48      54.9148      0.00000
     49      55.9184      0.00000
     50      57.6069      0.00000
     51      57.7683      0.00000
     52      57.9359      0.00000
     53      61.3493      0.00000
     54      63.7965      0.00000
     55      66.5491      0.00000
     56      66.8186      0.00000

 k-point     6 :       0.4490    0.4490    0.4490
  band No.  band energies     occupation 
      1      -7.0102      2.00000
      2      -3.7474      2.00000
      3       2.1074      2.00000
      4       2.1074      2.00000
      5       4.0696     -0.00000
      6       7.4321      0.00000
      7       7.4321      0.00000
      8      10.9411      0.00000
      9      13.4954      0.00000
     10      14.3566      0.00000
     11      14.3566      0.00000
     12      15.5994      0.00000
     13      16.7084      0.00000
     14      16.7084      0.00000
     15      21.6307      0.00000
     16      23.9169      0.00000
     17      23.9169      0.00000
     18      24.9137      0.00000
     19      26.8968      0.00000
     20      26.8968      0.00000
     21      27.7014      0.00000
     22      30.2185      0.00000
     23      30.2185      0.00000
     24      30.7262      0.00000
     25      30.7262      0.00000
     26      31.0727      0.00000
     27      31.6156      0.00000
     28      35.1622      0.00000
     29      35.1622      0.00000
     30      35.4489      0.00000
     31      35.4489      0.00000
     32      35.9651      0.00000
     33      37.3710      0.00000
     34      37.6461      0.00000
     35      42.4900      0.00000
     36      42.4900      0.00000
     37      42.7759      0.00000
     38      43.6648      0.00000
     39      43.6648      0.00000
     40      44.7137      0.00000
     41      46.8681      0.00000
     42      46.8683      0.00000
     43      49.3993      0.00000
     44      50.2388      0.00000
     45      50.5278      0.00000
     46      52.7778      0.00000
     47      53.0062      0.00000
     48      54.8190      0.00000
     49      56.2199      0.00000
     50      56.5915      0.00000
     51      57.5410      0.00000
     52      58.4569      0.00000
     53      61.3749      0.00000
     54      62.9795      0.00000
     55      63.2318      0.00000
     56      66.4697      0.00000

 k-point     7 :       0.4388    0.4388    0.4388
  band No.  band energies     occupation 
      1      -7.0567      2.00000
      2      -3.6719      2.00000
      3       2.1176      2.00000
      4       2.1176      2.00000
      5       4.0785     -0.00000
      6       7.4346      0.00000
      7       7.4346      0.00000
      8      10.9515      0.00000
      9      13.2956      0.00000
     10      14.1937      0.00000
     11      14.1937      0.00000
     12      15.7709      0.00000
     13      16.9139      0.00000
     14      16.9139      0.00000
     15      21.3919      0.00000
     16      23.6309      0.00000
     17      23.6309      0.00000
     18      25.2054      0.00000
     19      27.1980      0.00000
     20      27.1980      0.00000
     21      27.4249      0.00000
     22      30.2065      0.00000
     23      30.2065      0.00000
     24      30.7095      0.00000
     25      30.7095      0.00000
     26      31.3613      0.00000
     27      31.5906      0.00000
     28      35.1928      0.00000
     29      35.1928      0.00000
     30      35.5100      0.00000
     31      35.5101      0.00000
     32      35.9233      0.00000
     33      37.4279      0.00000
     34      37.7471      0.00000
     35      42.4972      0.00000
[...]
     20      24.4912      0.00000
     21      24.5063      0.00000
     22      25.1361      0.00000
     23      30.1251      0.00000
     24      31.4826      0.00000
     25      32.0082      0.00000
     26      32.0375      0.00000
     27      34.2926      0.00000
     28      36.0577      0.00000
     29      36.3271      0.00000
     30      37.2861      0.00000
     31      39.0169      0.00000
     32      39.1083      0.00000
     33      39.2744      0.00000
     34      40.3479      0.00000
     35      41.7108      0.00000
     36      42.0258      0.00000
     37      42.6158      0.00000
     38      44.6455      0.00000
     39      44.8605      0.00000
     40      47.7576      0.00000
     41      49.2488      0.00000
     42      51.5226      0.00000
     43      51.9219      0.00000
     44      53.9839      0.00000
     45      54.7014      0.00000
     46      54.9139      0.00000
     47      56.8551      0.00000
     48      57.1926      0.00000
     49      57.7123      0.00000
     50      61.8431      0.00000
     51      65.9731      0.00000
     52      68.2924      0.00000
     53      69.2447      0.00000
     54      73.5637      0.00000
     55      74.1294      0.00000
     56      78.3680      0.00000

 k-point    96 :       0.4592    0.0000    0.4592
  band No.  band energies     occupation 
      1      -5.6999      2.00000
      2      -4.5081      2.00000
      3       0.4418      2.00000
      4       0.4418      2.00000
      5       4.3857     -0.00000
      6       4.7188     -0.00000
      7      12.8892      0.00000
      8      12.8892      0.00000
      9      14.6463      0.00000
     10      15.9204      0.00000
     11      16.6614      0.00000
     12      16.6614      0.00000
     13      16.6835      0.00000
     14      18.0452      0.00000
     15      21.6238      0.00000
     16      21.6238      0.00000
     17      21.7131      0.00000
     18      22.4833      0.00000
     19      24.1084      0.00000
     20      24.1543      0.00000
     21      24.1678      0.00000
     22      24.8014      0.00000
     23      30.2686      0.00000
     24      31.3585      0.00000
     25      32.0582      0.00000
     26      32.0926      0.00000
     27      34.7383      0.00000
     28      35.9765      0.00000
     29      36.2214      0.00000
     30      37.3808      0.00000
     31      38.9735      0.00000
     32      39.1118      0.00000
     33      39.1617      0.00000
     34      40.2998      0.00000
     35      41.4467      0.00000
     36      41.9739      0.00000
     37      42.6237      0.00000
     38      44.7840      0.00000
     39      44.9857      0.00000
     40      47.8683      0.00000
     41      49.7896      0.00000
     42      51.1942      0.00000
     43      51.8855      0.00000
     44      53.9086      0.00000
     45      54.6871      0.00000
     46      54.7247      0.00000
     47      57.1269      0.00000
     48      57.2420      0.00000
     49      57.5979      0.00000
     50      61.8478      0.00000
     51      66.0949      0.00000
     52      68.5028      0.00000
     53      68.7460      0.00000
     54      73.8316      0.00000
     55      74.7979      0.00000
     56      77.4903      0.00000

 k-point    97 :       0.4694    0.0000    0.4694
  band No.  band energies     occupation 
      1      -5.5590      2.00000
      2      -4.6647      2.00000
      3       0.4291      2.00000
      4       0.4291      2.00000
      5       4.4122     -0.00000
      6       4.6620     -0.00000
      7      12.9802      0.00000
      8      12.9802      0.00000
      9      14.8295      0.00000
     10      15.7953      0.00000
     11      16.5571      0.00000
     12      16.5571      0.00000
     13      16.8414      0.00000
     14      17.8626      0.00000
     15      21.9242      0.00000
     16      21.9242      0.00000
     17      21.9898      0.00000
     18      22.7189      0.00000
     19      23.7948      0.00000
     20      23.8224      0.00000
     21      23.8333      0.00000
     22      24.4744      0.00000
     23      30.4081      0.00000
     24      31.2312      0.00000
     25      32.0980      0.00000
     26      32.1371      0.00000
     27      35.1843      0.00000
     28      35.9003      0.00000
     29      36.1092      0.00000
     30      37.4671      0.00000
     31      38.9219      0.00000
     32      39.0683      0.00000
     33      39.1089      0.00000
     34      40.2838      0.00000
     35      41.0931      0.00000
     36      41.9338      0.00000
     37      42.6051      0.00000
     38      44.8741      0.00000
     39      45.1033      0.00000
     40      48.0935      0.00000
     41      49.9769      0.00000
     42      50.5188      0.00000
     43      51.8961      0.00000
     44      53.9041      0.00000
     45      54.5811      0.00000
     46      55.0217      0.00000
     47      57.4001      0.00000
     48      57.4694      0.00000
     49      58.1149      0.00000
     50      61.9638      0.00000
     51      66.1499      0.00000
     52      68.2633      0.00000
     53      68.8173      0.00000
     54      74.0745      0.00000
     55      75.5504      0.00000
     56      76.6233      0.00000

 k-point    98 :       0.4796    0.0000    0.4796
  band No.  band energies     occupation 
      1      -5.4156      2.00000
      2      -4.8193      2.00000
      3       0.4201      2.00000
      4       0.4201      2.00000
      5       4.4430     -0.00000
      6       4.6096     -0.00000
      7      13.0485      0.00000
      8      13.0485      0.00000
      9      15.0083      0.00000
     10      15.6570      0.00000
     11      16.4793      0.00000
     12      16.4793      0.00000
     13      17.0028      0.00000
     14      17.6836      0.00000
     15      22.2298      0.00000
     16      22.2298      0.00000
     17      22.2719      0.00000
     18      22.9656      0.00000
     19      23.4895      0.00000
     20      23.4985      0.00000
     21      23.5038      0.00000
     22      24.1567      0.00000
     23      30.5445      0.00000
     24      31.1061      0.00000
     25      32.1300      0.00000
     26      32.1750      0.00000
     27      35.6216      0.00000
     28      35.8702      0.00000
     29      36.0431      0.00000
     30      37.5786      0.00000
     31      38.8830      0.00000
     32      39.0054      0.00000
     33      39.1240      0.00000
     34      40.2707      0.00000
     35      41.2748      0.00000
     36      41.9890      0.00000
     37      42.6348      0.00000
     38      45.1105      0.00000
     39      45.3462      0.00000
     40      48.1947      0.00000
     41      49.4712      0.00000
     42      50.7638      0.00000
     43      51.9729      0.00000
     44      54.1578      0.00000
     45      54.6158      0.00000
     46      55.2962      0.00000
     47      57.1308      0.00000
     48      57.8716      0.00000
     49      58.9606      0.00000
     50      62.0094      0.00000
     51      65.9990      0.00000
     52      67.7094      0.00000
     53      69.0860      0.00000
     54      74.4603      0.00000
     55      75.6445      0.00000
     56      75.8557      0.00000

 k-point    99 :       0.4898    0.0000    0.4898
  band No.  band energies     occupation 
      1      -5.2699      2.00000
      2      -4.9717      2.00000
      3       0.4147      2.00000
      4       0.4147      2.00000
      5       4.4782     -0.00000
      6       4.5614     -0.00000
      7      13.0910      0.00000
      8      13.0910      0.00000
      9      15.1816      0.00000
     10      15.5074      0.00000
     11      16.4311      0.00000
     12      16.4311      0.00000
     13      17.1678      0.00000
     14      17.5082      0.00000
     15      22.5403      0.00000
     16      22.5403      0.00000
     17      22.5583      0.00000
     18      23.1062      0.00000
     19      23.1787      0.00000
     20      23.1869      0.00000
     21      23.3033      0.00000
     22      23.8497      0.00000
     23      30.6784      0.00000
     24      30.9782      0.00000
     25      32.1514      0.00000
     26      32.2020      0.00000
     27      35.9034      0.00000
     28      35.9799      0.00000
     29      35.9943      0.00000
     30      37.6678      0.00000
     31      38.8475      0.00000
     32      38.9622      0.00000
     33      39.1290      0.00000
     34      40.2647      0.00000
     35      41.1460      0.00000
     36      41.9561      0.00000
     37      42.6261      0.00000
     38      45.0116      0.00000
     39      45.7145      0.00000
     40      48.5772      0.00000
     41      49.2377      0.00000
     42      51.4151      0.00000
     43      51.9553      0.00000
     44      54.3395      0.00000
     45      55.1132      0.00000
     46      55.5818      0.00000
     47      57.4591      0.00000
     48      57.9268      0.00000
     49      59.4596      0.00000
     50      62.1457      0.00000
     51      65.9024      0.00000
     52      67.4014      0.00000
     53      69.1832      0.00000
     54      74.6493      0.00000
     55      74.6970      0.00000
     56      76.3581      0.00000

 k-point   100 :       0.5000    0.0000    0.5000
  band No.  band energies     occupation 
      1      -5.1219      2.00000
      2      -5.1219      2.00000
      3       0.4129      2.00000
      4       0.4129      2.00000
      5       4.5176     -0.00000
      6       4.5176     -0.00000
      7      13.1055      0.00000
      8      13.1055      0.00000
      9      15.3484      0.00000
     10      15.3484      0.00000
     11      16.4148      0.00000
     12      16.4148      0.00000
     13      17.3362      0.00000
     14      17.3362      0.00000
     15      22.8463      0.00000
     16      22.8501      0.00000
     17      22.8555      0.00000
     18      22.8555      0.00000
     19      22.8556      0.00000
     20      22.8581      0.00000
     21      23.5573      0.00000
     22      23.5575      0.00000
     23      30.8101      0.00000
     24      30.8496      0.00000
     25      32.1603      0.00000
     26      32.2200      0.00000
     27      35.8402      0.00000
     28      35.9242      0.00000
     29      36.4430      0.00000
     30      37.7443      0.00000
     31      38.8128      0.00000
     32      38.9415      0.00000
     33      39.1331      0.00000
     34      40.2749      0.00000
     35      40.9080      0.00000
     36      41.8524      0.00000
     37      42.6162      0.00000
     38      44.9370      0.00000
     39      45.8143      0.00000
     40      48.7496      0.00000
     41      48.8057      0.00000
     42      51.3354      0.00000
     43      52.1716      0.00000
     44      54.4946      0.00000
     45      55.0903      0.00000
     46      55.8654      0.00000
     47      57.6254      0.00000
     48      58.4542      0.00000
     49      59.8465      0.00000
     50      62.0125      0.00000
     51      66.0433      0.00000
     52      67.0537      0.00000
     53      69.6742      0.00000
     54      73.1318      0.00000
     55      75.1315      0.00000
     56      77.2255      0.00000


--------------------------------------------------------------------------------------------------------


 soft charge-density along one line, spin component           1
         0         1         2         3         4         5         6         7         8         9
 total charge-density along one line
 
 pseudopotential strength for first ion, spin component:           1
 14.468   0.000  18.051   0.000   0.000   0.000   0.000   0.000   0.000   0.000   0.000   0.000   0.000   0.000   0.000   0.000
 18.051   0.000  22.535   0.000   0.000   0.000   0.000   0.000   0.000   0.000   0.000   0.000   0.000   0.000   0.000   0.000
  0.000   0.000   0.000   0.000   3.000   0.000   0.000  -0.000   0.000  -0.000   5.146   0.000   0.000  -0.000   0.000  -0.000
  0.000   0.000   0.000   0.000   0.000   0.000   3.000   0.000   0.000   0.000   0.000   0.000   5.146   0.000   0.000   0.000
  0.000   0.000   0.000   0.000   0.000   0.000   0.000  -0.000   3.000   0.000   0.000   0.000   0.000  -0.000   5.146   0.000
  0.000   0.000   0.000   0.000   5.146   0.000   0.000  -0.000   0.000  -0.000   8.869   0.000   0.000  -0.000   0.000  -0.000
  0.000   0.000   0.000   0.000   0.000   0.000   5.146   0.000   0.000   0.000   0.000   0.000   8.869   0.000   0.000   0.000
  0.000   0.000   0.000   0.000   0.000   0.000   0.000  -0.000   5.146   0.000   0.000   0.000   0.000  -0.000   8.869   0.000
  0.000   0.000   0.000   0.000   0.000   0.000   0.001   0.000   0.000   0.000   0.000   0.000   0.002   0.000   0.000   0.000
  0.000   0.000   0.000   0.000   0.000   0.000   0.000   0.000   0.001   0.000   0.000   0.000   0.000   0.000   0.002   0.000
 -0.000   0.000  -0.000   0.000   0.000   0.000  -0.000   0.000   0.000   0.000   0.000   0.000  -0.000   0.000   0.000   0.000
  0.000   0.000   0.000   0.000   0.001   0.000   0.000   0.000   0.000   0.000   0.002   0.000   0.000   0.000   0.000   0.000
 -0.000   0.000  -0.000   0.000   0.000   0.000   0.000   0.000  -0.000   0.000   0.000   0.000   0.000   0.000  -0.000   0.000
 total augmentation occupancy for first ion, spin component:           1
  2.000   0.000   0.000   0.000   0.000   0.000   0.000   0.000   0.000   0.000   0.000   0.000   0.000
  0.000   0.000   0.000   0.000   0.000   0.000   0.000   0.000   0.000   0.000   0.000   0.000   0.000
  0.000   0.000   0.667   0.000   0.000   0.000   0.000   0.000   0.000   0.000   0.000   0.000   0.000
  0.000   0.000   0.000   0.667   0.000   0.000   0.000   0.000   0.000   0.000   0.000   0.000   0.000
  0.000   0.000   0.000   0.000   0.667   0.000   0.000   0.000   0.000   0.000   0.000   0.000   0.000
  0.000   0.000   0.000   0.000   0.000   0.000   0.000   0.000   0.000   0.000   0.000   0.000   0.000
  0.000   0.000   0.000   0.000   0.000   0.000   0.000   0.000   0.000   0.000   0.000   0.000   0.000
  0.000   0.000   0.000   0.000   0.000   0.000   0.000   0.000   0.000   0.000   0.000   0.000   0.000
  0.000   0.000   0.000   0.000   0.000   0.000   0.000   0.000   0.000   0.000   0.000   0.000   0.000
  0.000   0.000   0.000   0.000   0.000   0.000   0.000   0.000   0.000   0.000   0.000   0.000   0.000
  0.000   0.000   0.000   0.000   0.000   0.000   0.000   0.000   0.000   0.000   0.000   0.000   0.000
  0.000   0.000   0.000   0.000   0.000   0.000   0.000   0.000   0.000   0.000   0.000   0.000   0.000
  0.000   0.000   0.000   0.000   0.000   0.000   0.000   0.000   0.000   0.000   0.000   0.000   0.000


------------------------ aborting loop because EDIFF is reached ----------------------------------------


    CHARGE:  cpu time    0.0440: real time    0.0956
    FORLOC:  cpu time    0.0003: real time    0.0003
    FORNL :  cpu time    0.0373: real time    0.0755
    STRESS:  cpu time    0.3876: real time    0.7791
    FORCOR:  cpu time    0.0038: real time    0.0038
    FORHAR:  cpu time    0.0012: real time    0.0104
    OFIELD:  cpu time    0.0000: real time    0.0000

  FORCE on cell =-STRESS in cart. coord.  units (eV):
  Direction    XX          YY          ZZ          XY          YZ          ZX
  --------------------------------------------------------------------------------------
  Alpha Z    17.10940    17.10940    17.10940
  Ewald     -73.44225   -73.44225   -73.44225     0.00000     0.00000     0.00000
  Hartree     6.51338     6.51338     6.51338     0.00000     0.00000     0.00000
  E(xc)     -28.06843   -28.06843   -28.06843     0.00000     0.00000     0.00000
  Local     -26.58006   -26.58006   -26.58006     0.00000     0.00000     0.00000
  n-local    42.67441    39.77937    42.67435    -1.10222    -1.10285    -1.10236
  augment     2.29693     2.29693     2.29693    -0.00000    -0.00000    -0.00000
  Kinetic    72.43094    64.74182    72.43138    -2.59293    -2.59198    -2.59306
  Fock        0.00000     0.00000     0.00000     0.00000     0.00000     0.00000
  -------------------------------------------------------------------------------------
  Total       9.40640     9.40640     9.40640     0.00000    -0.00000    -0.00000
  in kB     337.26783   337.26783   337.26783     0.00000    -0.00000    -0.00000
  external pressure =      337.27 kB  Pullay stress =        0.00 kB


 VOLUME and BASIS-vectors are now :
 -----------------------------------------------------------------------------
  energy-cutoff  :      450.00
  volume of cell :       44.68
      direct lattice vectors                 reciprocal lattice vectors
     0.000000000  2.816500000  2.816500000    -0.177525297  0.177525297  0.177525297
     2.816500000  0.000000000  2.816500000     0.177525297 -0.177525297  0.177525297
     2.816500000  2.816500000  0.000000000     0.177525297  0.177525297 -0.177525297

  length of vectors
     3.983132498  3.983132498  3.983132498     0.307482835  0.307482835  0.307482835


 FORCES acting on ions
    electron-ion (+dipol)            ewald-force                    non-local-force                 convergence-correction
 -----------------------------------------------------------------------------------------------
   -.213E-06 -.213E-06 -.213E-06   0.204E-14 0.421E-14 0.352E-14   0.520E-16 -.260E-16 0.295E-16   -.619E-10 -.619E-10 -.619E-10
   0.213E-06 0.213E-06 0.213E-06   -.214E-14 -.407E-14 -.341E-14   -.486E-16 0.694E-17 -.694E-17   0.619E-10 0.619E-10 0.619E-10
 -----------------------------------------------------------------------------------------------
   -.357E-13 0.444E-14 0.533E-14   -.101E-15 0.144E-15 0.110E-15   0.347E-17 -.191E-16 0.226E-16   0.280E-14 -.309E-15 -.190E-14
 
 
 POSITION                                       TOTAL-FORCE (eV/Angst)
 -----------------------------------------------------------------------------------
      0.00000      0.00000      0.00000         0.000000      0.000000     -0.000000
      1.40825      1.40825      1.40825        -0.000000     -0.000000      0.000000
 -----------------------------------------------------------------------------------
    total drift:                               -0.000000      0.000000      0.000000


--------------------------------------------------------------------------------------------------------



  FREE ENERGIE OF THE ION-ELECTRON SYSTEM (eV)
  ---------------------------------------------------
  free  energy   TOTEN  =        -3.64532571 eV

  energy  without entropy=       -3.64594464  energy(sigma->0) =       -3.64553202
 


--------------------------------------------------------------------------------------------------------


    POTLOK:  cpu time    0.0069: real time    0.0069


--------------------------------------------------------------------------------------------------------


     LOOP+:  cpu time   19.7057: real time   39.6306
    4ORBIT:  cpu time    0.0000: real time    0.0000

 total amount of memory used by VASP MPI-rank0    46535. kBytes
=======================================================================

   base      :      30000. kBytes
   nonl-proj :      10515. kBytes
   fftplans  :        272. kBytes
   grid      :        626. kBytes
   one-center:         16. kBytes
   wavefun   :       5106. kBytes
 
  
  
 General timing and accounting informations for this job:
 ========================================================
  
                  Total CPU time used (sec):       20.595
                            User time (sec):       18.832
                          System time (sec):        1.763
                         Elapsed time (sec):       41.453
  
                   Maximum memory used (kb):       81180.
                   Average memory used (kb):           0.
  
                          Minor page faults:        54571
                          Major page faults:            0
                 Voluntary context switches:         1454
