<?xml version="1.0" encoding="ISO-8859-1"?>
<modeling>
 <generator>
  <i name="program" type="string">vasp </i>
  <i name="version" type="string">5.4.4.18Apr17-6-g9f103f2a35  </i>
  <i name="subversion" type="string">(build Nov 08 2017 12:56:59) complex            parallel </i>
  <i name="platform" type="string">LinuxIFC </i>
  <i name="date" type="string">2020 03 24 </i>
  <i name="time" type="string">22:29:16 </i>
 </generator>
 <incar>
  <i type="string" name="PREC">n</i>
  <i type="string" name="ALGO"> D</i>
  <i type="int" name="ICHARG">    11</i>
  <i name="ENCUT">    450.00000000</i>
  <i name="SIGMA">      0.05000000</i>
  <i type="int" name="LMAXMIX">     2</i>
  <i type="logical" name="LWAVE"> F  </i>
  <i type="logical" name="LCHARG"> F  </i>
  <v type="int" name="KPOINT_BSE">    -1     0     0     0</v>
  <i type="string" name="GGA"> PE</i>
  <i type="logical" name="LDAU"> T  </i>
  <v type="int" name="LDAUL">     1</v>
  <v name="LDAUU">     -2.12700000</v>
  <v name="LDAUJ">      0.00000000</v>
 </incar>
 <structure name="primitive_cell" >
  <crystal>
   <varray name="basis" >
    <v>       0.00000000       2.81650000       2.81650000 </v>
    <v>       2.81650000       0.00000000       2.81650000 </v>
    <v>       2.81650000       2.81650000       0.00000000 </v>
   </varray>
   <i name="volume">     44.68474278 </i>
   <varray name="rec_basis" >
    <v>      -0.17752530       0.17752530       0.17752530 </v>
    <v>       0.17752530      -0.17752530       0.17752530 </v>
    <v>       0.17752530       0.17752530      -0.17752530 </v>
   </varray>
  </crystal>
  <varray name="positions" >
   <v>       0.00000000       0.00000000       0.00000000 </v>
   <v>       0.25000000       0.25000000       0.25000000 </v>
  </varray>
 </structure>
 <varray name="primitive_index" >
  <v type="int" >        1 </v>
  <v type="int" >        2 </v>
 </varray>
 <kpoints>
  <generation param="listgenerated">
   <i name="divisions" type="int">      50 </i>
   <v>       0.50000000       0.50000000       0.50000000 </v>
   <v>       0.00000000       0.00000000       0.00000000 </v>
   <v>       0.50000000       0.00000000       0.50000000 </v>
  </generation>
  <varray name="kpointlist" >
   <v>       0.50000000       0.50000000       0.50000000 </v>
   <v>       0.48979592       0.48979592       0.48979592 </v>
   <v>       0.47959184       0.47959184       0.47959184 </v>
   <v>       0.46938776       0.46938776       0.46938776 </v>
   <v>       0.45918367       0.45918367       0.45918367 </v>
   <v>       0.44897959       0.44897959       0.44897959 </v>
   <v>       0.43877551       0.43877551       0.43877551 </v>
   <v>       0.42857143       0.42857143       0.42857143 </v>
   <v>       0.41836735       0.41836735       0.41836735 </v>
   <v>       0.40816327       0.40816327       0.40816327 </v>
   <v>       0.39795918       0.39795918       0.39795918 </v>
   <v>       0.38775510       0.38775510       0.38775510 </v>
   <v>       0.37755102       0.37755102       0.37755102 </v>
   <v>       0.36734694       0.36734694       0.36734694 </v>
   <v>       0.35714286       0.35714286       0.35714286 </v>
   <v>       0.34693878       0.34693878       0.34693878 </v>
   <v>       0.33673469       0.33673469       0.33673469 </v>
   <v>       0.32653061       0.32653061       0.32653061 </v>
   <v>       0.31632653       0.31632653       0.31632653 </v>
   <v>       0.30612245       0.30612245       0.30612245 </v>
   <v>       0.29591837       0.29591837       0.29591837 </v>
   <v>       0.28571429       0.28571429       0.28571429 </v>
   <v>       0.27551020       0.27551020       0.27551020 </v>
   <v>       0.26530612       0.26530612       0.26530612 </v>
   <v>       0.25510204       0.25510204       0.25510204 </v>
   <v>       0.24489796       0.24489796       0.24489796 </v>
   <v>       0.23469388       0.23469388       0.23469388 </v>
   <v>       0.22448980       0.22448980       0.22448980 </v>
   <v>       0.21428571       0.21428571       0.21428571 </v>
   <v>       0.20408163       0.20408163       0.20408163 </v>
   <v>       0.19387755       0.19387755       0.19387755 </v>
   <v>       0.18367347       0.18367347       0.18367347 </v>
   <v>       0.17346939       0.17346939       0.17346939 </v>
   <v>       0.16326531       0.16326531       0.16326531 </v>
   <v>       0.15306122       0.15306122       0.15306122 </v>
   <v>       0.14285714       0.14285714       0.14285714 </v>
   <v>       0.13265306       0.13265306       0.13265306 </v>
   <v>       0.12244898       0.12244898       0.12244898 </v>
   <v>       0.11224490       0.11224490       0.11224490 </v>
   <v>       0.10204082       0.10204082       0.10204082 </v>
   <v>       0.09183673       0.09183673       0.09183673 </v>
   <v>       0.08163265       0.08163265       0.08163265 </v>
   <v>       0.07142857       0.07142857       0.07142857 </v>
   <v>       0.06122449       0.06122449       0.06122449 </v>
   <v>       0.05102041       0.05102041       0.05102041 </v>
   <v>       0.04081633       0.04081633       0.04081633 </v>
   <v>       0.03061224       0.03061224       0.03061224 </v>
   <v>       0.02040816       0.02040816       0.02040816 </v>
   <v>       0.01020408       0.01020408       0.01020408 </v>
   <v>       0.00000000       0.00000000       0.00000000 </v>
   <v>       0.00000000       0.00000000       0.00000000 </v>
   <v>       0.01020408       0.00000000       0.01020408 </v>
   <v>       0.02040816       0.00000000       0.02040816 </v>
   <v>       0.03061224       0.00000000       0.03061224 </v>
   <v>       0.04081633       0.00000000       0.04081633 </v>
   <v>       0.05102041       0.00000000       0.05102041 </v>
   <v>       0.06122449       0.00000000       0.06122449 </v>
   <v>       0.07142857       0.00000000       0.07142857 </v>
   <v>       0.08163265       0.00000000       0.08163265 </v>
   <v>       0.09183673       0.00000000       0.09183673 </v>
   <v>       0.10204082       0.00000000       0.10204082 </v>
   <v>       0.11224490       0.00000000       0.11224490 </v>
   <v>       0.12244898       0.00000000       0.12244898 </v>
   <v>       0.13265306       0.00000000       0.13265306 </v>
   <v>       0.14285714       0.00000000       0.14285714 </v>
   <v>       0.15306122       0.00000000       0.15306122 </v>
   <v>       0.16326531       0.00000000       0.16326531 </v>
   <v>       0.17346939       0.00000000       0.17346939 </v>
   <v>       0.18367347       0.00000000       0.18367347 </v>
   <v>       0.19387755       0.00000000       0.19387755 </v>
   <v>       0.20408163       0.00000000       0.20408163 </v>
   <v>       0.21428571       0.00000000       0.21428571 </v>
   <v>       0.22448980       0.00000000       0.22448980 </v>
   <v>       0.23469388       0.00000000       0.23469388 </v>
   <v>       0.24489796       0.00000000       0.24489796 </v>
   <v>       0.25510204       0.00000000       0.25510204 </v>
   <v>       0.26530612       0.00000000       0.26530612 </v>
   <v>       0.27551020       0.00000000       0.27551020 </v>
   <v>       0.28571429       0.00000000       0.28571429 </v>
   <v>       0.29591837       0.00000000       0.29591837 </v>
   <v>       0.30612245       0.00000000       0.30612245 </v>
   <v>       0.31632653       0.00000000       0.31632653 </v>
   <v>       0.32653061       0.00000000       0.32653061 </v>
   <v>       0.33673469       0.00000000       0.33673469 </v>
   <v>       0.34693878       0.00000000       0.34693878 </v>
   <v>       0.35714286       0.00000000       0.35714286 </v>
   <v>       0.36734694       0.00000000       0.36734694 </v>
   <v>       0.37755102       0.00000000       0.37755102 </v>
   <v>       0.38775510       0.00000000       0.38775510 </v>
   <v>       0.39795918       0.00000000       0.39795918 </v>
   <v>       0.40816327       0.00000000       0.40816327 </v>
   <v>       0.41836735       0.00000000       0.41836735 </v>
   <v>       0.42857143       0.00000000       0.42857143 </v>
   <v>       0.43877551       0.00000000       0.43877551 </v>
   <v>       0.44897959       0.00000000       0.44897959 </v>
   <v>       0.45918367       0.00000000       0.45918367 </v>
   <v>       0.46938776       0.00000000       0.46938776 </v>
   <v>       0.47959184       0.00000000       0.47959184 </v>
   <v>       0.48979592       0.00000000       0.48979592 </v>
   <v>       0.50000000       0.00000000       0.50000000 </v>
  </varray>
  <varray name="weights" >
   <v>       0.01000000 </v>
   <v>       0.01000000 </v>
   <v>       0.01000000 </v>
   <v>       0.01000000 </v>
   <v>       0.01000000 </v>
   <v>       0.01000000 </v>
   <v>       0.01000000 </v>
   <v>       0.01000000 </v>
   <v>       0.01000000 </v>
   <v>       0.01000000 </v>
   <v>       0.01000000 </v>
   <v>       0.01000000 </v>
   <v>       0.01000000 </v>
   <v>       0.01000000 </v>
   <v>       0.01000000 </v>
   <v>       0.01000000 </v>
   <v>       0.01000000 </v>
   <v>       0.01000000 </v>
   <v>       0.01000000 </v>
   <v>       0.01000000 </v>
   <v>       0.01000000 </v>
   <v>       0.01000000 </v>
   <v>       0.01000000 </v>
   <v>       0.01000000 </v>
   <v>       0.01000000 </v>
   <v>       0.01000000 </v>
   <v>       0.01000000 </v>
   <v>       0.01000000 </v>
   <v>       0.01000000 </v>
   <v>       0.01000000 </v>
   <v>       0.01000000 </v>
   <v>       0.01000000 </v>
   <v>       0.01000000 </v>
   <v>       0.01000000 </v>
   <v>       0.01000000 </v>
   <v>       0.01000000 </v>
   <v>       0.01000000 </v>
   <v>       0.01000000 </v>
   <v>       0.01000000 </v>
   <v>       0.01000000 </v>
   <v>       0.01000000 </v>
   <v>       0.01000000 </v>
   <v>       0.01000000 </v>
   <v>       0.01000000 </v>
   <v>       0.01000000 </v>
   <v>       0.01000000 </v>
   <v>       0.01000000 </v>
   <v>       0.01000000 </v>
   <v>       0.01000000 </v>
   <v>       0.01000000 </v>
   <v>       0.01000000 </v>
   <v>       0.01000000 </v>
   <v>       0.01000000 </v>
   <v>       0.01000000 </v>
   <v>       0.01000000 </v>
   <v>       0.01000000 </v>
   <v>       0.01000000 </v>
   <v>       0.01000000 </v>
   <v>       0.01000000 </v>
   <v>       0.01000000 </v>
   <v>       0.01000000 </v>
   <v>       0.01000000 </v>
   <v>       0.01000000 </v>
   <v>       0.01000000 </v>
   <v>       0.01000000 </v>
   <v>       0.01000000 </v>
   <v>       0.01000000 </v>
   <v>       0.01000000 </v>
   <v>       0.01000000 </v>
   <v>       0.01000000 </v>
   <v>       0.01000000 </v>
   <v>       0.01000000 </v>
   <v>       0.01000000 </v>
   <v>       0.01000000 </v>
   <v>       0.01000000 </v>
   <v>       0.01000000 </v>
   <v>       0.01000000 </v>
   <v>       0.01000000 </v>
   <v>       0.01000000 </v>
   <v>       0.01000000 </v>
   <v>       0.01000000 </v>
   <v>       0.01000000 </v>
   <v>       0.01000000 </v>
   <v>       0.01000000 </v>
   <v>       0.01000000 </v>
   <v>       0.01000000 </v>
   <v>       0.01000000 </v>
   <v>       0.01000000 </v>
   <v>       0.01000000 </v>
   <v>       0.01000000 </v>
   <v>       0.01000000 </v>
   <v>       0.01000000 </v>
   <v>       0.01000000 </v>
   <v>       0.01000000 </v>
   <v>       0.01000000 </v>
   <v>       0.01000000 </v>
   <v>       0.01000000 </v>
   <v>       0.01000000 </v>
   <v>       0.01000000 </v>
   <v>       0.01000000 </v>
  </varray>
 </kpoints>
 <parameters>
  <separator name="general" >
   <i type="string" name="SYSTEM">unknown system</i>
   <i type="logical" name="LCOMPAT"> F  </i>
  </separator>
  <separator name="electronic" >
   <i type="string" name="PREC">n</i>
   <i name="ENMAX">    450.00000000</i>
   <i name="ENAUG">    385.84300000</i>
   <i name="EDIFF">      0.00010000</i>
   <i type="int" name="IALGO">    53</i>
   <i type="int" name="IWAVPR">    10</i>
   <i type="int" name="NBANDS">    56</i>
   <i name="NELECT">      8.00000000</i>
   <i type="int" name="TURBO">     0</i>
   <i type="int" name="IRESTART">     0</i>
   <i type="int" name="NREBOOT">     0</i>
   <i type="int" name="NMIN">     0</i>
   <i name="EREF">      0.00000000</i>
   <separator name="electronic smearing" >
    <i type="int" name="ISMEAR">     1</i>
    <i name="SIGMA">      0.05000000</i>
    <i name="KSPACING">      0.50000000</i>
    <i type="logical" name="KGAMMA"> T  </i>
   </separator>
   <separator name="electronic projectors" >
    <i type="logical" name="LREAL"> F  </i>
    <v name="ROPT">      0.00000000</v>
    <i type="int" name="LMAXPAW">  -100</i>
    <i type="int" name="LMAXMIX">     2</i>
    <i type="logical" name="NLSPLINE"> F  </i>
   </separator>
   <separator name="electronic startup" >
    <i type="int" name="ISTART">     1</i>
    <i type="int" name="ICHARG">    11</i>
    <i type="int" name="INIWAV">     1</i>
   </separator>
   <separator name="electronic spin" >
    <i type="int" name="ISPIN">     1</i>
    <i type="logical" name="LNONCOLLINEAR"> F  </i>
    <v name="MAGMOM">      1.00000000      1.00000000</v>
    <i name="NUPDOWN">     -1.00000000</i>
    <i type="logical" name="LSORBIT"> F  </i>
    <v name="SAXIS">      0.00000000      0.00000000      1.00000000</v>
    <i type="logical" name="LSPIRAL"> F  </i>
    <v name="QSPIRAL">      0.00000000      0.00000000      0.00000000</v>
    <i type="logical" name="LZEROZ"> F  </i>
   </separator>
   <separator name="electronic exchange-correlation" >
    <i type="logical" name="LASPH"> F  </i>
    <i type="logical" name="LMETAGGA"> F  </i>
   </separator>
   <separator name="electronic convergence" >
    <i type="int" name="NELM">    60</i>
    <i type="int" name="NELMDL">     0</i>
    <i type="int" name="NELMIN">     2</i>
    <i name="ENINI">    450.00000000</i>
    <separator name="electronic convergence detail" >
     <i type="logical" name="LDIAG"> T  </i>
     <i type="logical" name="LSUBROT"> F  </i>
     <i name="WEIMIN">      0.00000000</i>
     <i name="EBREAK">      0.00000045</i>
     <i name="DEPER">      0.30000000</i>
     <i type="int" name="NRMM">     4</i>
     <i name="TIME">      0.40000000</i>
    </separator>
   </separator>
   <separator name="electronic mixer" >
    <i name="AMIX">      0.40000000</i>
    <i name="BMIX">      1.00000000</i>
    <i name="AMIN">      0.10000000</i>
    <i name="AMIX_MAG">      1.60000000</i>
    <i name="BMIX_MAG">      1.00000000</i>
    <separator name="electronic mixer details" >
     <i type="int" name="IMIX">     4</i>
     <i type="logical" name="MIXFIRST"> F  </i>
     <i type="int" name="MAXMIX">   -45</i>
     <i name="WC">    100.00000000</i>
     <i type="int" name="INIMIX">     1</i>
     <i type="int" name="MIXPRE">     1</i>
     <i type="int" name="MREMOVE">     5</i>
    </separator>
   </separator>
   <separator name="electronic dipolcorrection" >
    <i type="logical" name="LDIPOL"> F  </i>
    <i type="logical" name="LMONO"> F  </i>
    <i type="int" name="IDIPOL">     0</i>
    <i name="EPSILON">      1.00000000</i>
    <v name="DIPOL">   -100.00000000   -100.00000000   -100.00000000</v>
    <i name="EFIELD">      0.00000000</i>
   </separator>
  </separator>
  <separator name="grids" >
   <i type="int" name="NGX">    24</i>
   <i type="int" name="NGY">    24</i>
   <i type="int" name="NGZ">    24</i>
   <i type="int" name="NGXF">    48</i>
   <i type="int" name="NGYF">    48</i>
   <i type="int" name="NGZF">    48</i>
   <i type="logical" name="ADDGRID"> F  </i>
  </separator>
  <separator name="ionic" >
   <i type="int" name="NSW">     0</i>
   <i type="int" name="IBRION">    -1</i>
   <i type="int" name="MDALGO">     0</i>
   <i type="int" name="ISIF">     2</i>
   <i name="PSTRESS">      0.00000000</i>
   <i name="EDIFFG">      0.00100000</i>
   <i type="int" name="NFREE">     0</i>
   <i name="POTIM">      0.50000000</i>
   <i name="SMASS">     -3.00000000</i>
   <i name="SCALEE">      1.00000000</i>
  </separator>
  <separator name="ionic md" >
   <i name="TEBEG">      0.00010000</i>
   <i name="TEEND">      0.00010000</i>
   <i type="int" name="NBLOCK">     1</i>
   <i type="int" name="KBLOCK">     1</i>
   <i type="int" name="NPACO">   256</i>
   <i name="APACO">     16.00000000</i>
  </separator>
  <separator name="symmetry" >
   <i type="int" name="ISYM">     2</i>
   <i name="SYMPREC">      0.00001000</i>
  </separator>
  <separator name="dos" >
   <i type="int" name="LORBIT">     0</i>
   <v name="RWIGS">     -1.00000000</v>
   <i type="int" name="NEDOS">   301</i>
   <i name="EMIN">     10.00000000</i>
   <i name="EMAX">    -10.00000000</i>
   <i name="EFERMI">      0.00000000</i>
  </separator>
  <separator name="writing" >
   <i type="int" name="NWRITE">     2</i>
   <i type="logical" name="LWAVE"> F  </i>
   <i type="logical" name="LDOWNSAMPLE"> F  </i>
   <i type="logical" name="LCHARG"> F  </i>
   <i type="logical" name="LPARD"> F  </i>
   <i type="logical" name="LVTOT"> F  </i>
   <i type="logical" name="LVHAR"> F  </i>
   <i type="logical" name="LELF"> F  </i>
   <i type="logical" name="LOPTICS"> F  </i>
   <v name="STM">      0.00000000      0.00000000      0.00000000      0.00000000      0.00000000      0.00000000      0.00000000</v>
  </separator>
  <separator name="performance" >
   <i type="int" name="NPAR">    56</i>
   <i type="int" name="NSIM">     4</i>
   <i type="int" name="NBLK">    -1</i>
   <i type="logical" name="LPLANE"> T  </i>
   <i type="logical" name="LSCALAPACK"> T  </i>
   <i type="logical" name="LSCAAWARE"> T  </i>
   <i type="logical" name="LSCALU"> F  </i>
   <i type="logical" name="LASYNC"> F  </i>
   <i type="logical" name="LORBITALREAL"> F  </i>
  </separator>
  <separator name="miscellaneous" >
   <i type="int" name="IDIOT">     3</i>
   <i type="int" name="ISPECIAL">     0</i>
   <i type="logical" name="LMUSIC"> F  </i>
   <v name="POMASS">     72.61000000</v>
   <v name="DARWINR">      0.00000000</v>
   <v name="DARWINV">      1.00000000</v>
   <i type="logical" name="LCORR"> T  </i>
  </separator>
  <i type="logical" name="GGA_COMPAT"> T  </i>
  <i type="logical" name="LBERRY"> F  </i>
  <i type="int" name="ICORELEVEL">     0</i>
  <i type="logical" name="LDAU"> T  </i>
  <v type="int" name="LDAUTYPE">     2</v>
  <v type="int" name="LDAUL">     1</v>
  <v name="LDAUU">     -2.12700000</v>
  <v name="LDAUJ">      0.00000000</v>
  <i type="int" name="LDAUPRINT">     0</i>
  <i type="int" name="I_CONSTRAINED_M">     0</i>
  <separator name="electronic exchange-correlation" >
   <i type="string" name="GGA">PE</i>
   <i type="int" name="VOSKOWN">     0</i>
   <i type="logical" name="LHFCALC"> F  </i>
   <i type="string" name="PRECFOCK"></i>
   <i type="logical" name="LSYMGRAD"> F  </i>
   <i type="logical" name="LHFONE"> F  </i>
   <i type="logical" name="LRHFCALC"> F  </i>
   <i type="logical" name="LTHOMAS"> F  </i>
   <i type="logical" name="LMODELHF"> F  </i>
   <i name="ENCUT4O">     -1.00000000</i>
   <i type="int" name="EXXOEP">     0</i>
   <i type="int" name="FOURORBIT">     0</i>
   <i name="AEXX">      0.00000000</i>
   <i name="HFALPHA">      0.00000000</i>
   <i name="MCALPHA">      0.00000000</i>
   <i name="ALDAX">      1.00000000</i>
   <i name="AGGAX">      1.00000000</i>
   <i name="ALDAC">      1.00000000</i>
   <i name="AGGAC">      1.00000000</i>
   <i type="int" name="NKREDX">     1</i>
   <i type="int" name="NKREDY">     1</i>
   <i type="int" name="NKREDZ">     1</i>
   <i type="logical" name="SHIFTRED"> F  </i>
   <i type="logical" name="ODDONLY"> F  </i>
   <i type="logical" name="EVENONLY"> F  </i>
   <i type="int" name="LMAXFOCK">     0</i>
   <i type="int" name="NMAXFOCKAE">     0</i>
   <i type="logical" name="LFOCKAEDFT"> F  </i>
   <i name="HFSCREEN">      0.00000000</i>
   <i name="HFSCREENC">      0.00000000</i>
   <i type="int" name="NBANDSGWLOW">     0</i>
  </separator>
  <separator name="vdW DFT" >
   <i type="logical" name="LUSE_VDW"> F  </i>
   <i name="Zab_VDW">     -0.84910000</i>
   <i name="PARAM1">      0.12340000</i>
   <i name="PARAM2">      1.00000000</i>
   <i name="PARAM3">      0.00000000</i>
  </separator>
  <separator name="model GW" >
   <i type="int" name="MODEL_GW">     0</i>
   <i name="MODEL_EPS0">     13.40542284</i>
   <i name="MODEL_ALPHA">      1.00000000</i>
  </separator>
  <separator name="linear response parameters" >
   <i type="logical" name="LEPSILON"> F  </i>
   <i type="logical" name="LRPA"> F  </i>
   <i type="logical" name="LNABLA"> F  </i>
   <i type="logical" name="LVEL"> F  </i>
   <i type="int" name="KINTER">     0</i>
   <i name="CSHIFT">      0.10000000</i>
   <i name="OMEGAMAX">     -1.00000000</i>
   <i name="DEG_THRESHOLD">      0.00200000</i>
   <i name="RTIME">     -0.10000000</i>
   <i name="WPLASMAI">      0.00000000</i>
   <v name="DFIELD">      0.00000000      0.00000000      0.00000000</v>
   <v name="WPLASMA">      0.00000000      0.00000000      0.00000000      0.00000000      0.00000000      0.00000000      0.00000000      0.00000000      0.00000000</v>
  </separator>
  <separator name="orbital magnetization" >
   <i type="logical" name="NUCIND"> F  </i>
   <v name="MAGPOS">      0.00000000      0.00000000      0.00000000</v>
   <i type="logical" name="LNICSALL"> T  </i>
   <i type="logical" name="ORBITALMAG"> F  </i>
   <i type="logical" name="LMAGBLOCH"> F  </i>
   <i type="logical" name="LCHIMAG"> F  </i>
   <i type="logical" name="LGAUGE"> T  </i>
   <i type="int" name="MAGATOM">     0</i>
   <v name="MAGDIPOL">      0.00000000      0.00000000      0.00000000</v>
   <v name="AVECCONST">      0.00000000      0.00000000      0.00000000</v>
  </separator>
  <separator name="response functions" >
   <i type="logical" name="LADDER"> F  </i>
   <i type="logical" name="LRPAFORCE"> F  </i>
   <i type="logical" name="LFXC"> F  </i>
   <i type="logical" name="LHARTREE"> T  </i>
   <i type="int" name="IBSE">     0</i>
   <v type="int" name="KPOINT">    -1     0     0     0</v>
   <i type="logical" name="LTCTE"> F  </i>
   <i type="logical" name="LTETE"> F  </i>
   <i type="logical" name="LTRIPLET"> F  </i>
   <i type="logical" name="LFXCEPS"> F  </i>
   <i type="logical" name="LFXHEG"> F  </i>
   <i type="int" name="NATURALO">     2</i>
   <i type="logical" name="L2ORDER"> F  </i>
   <i type="logical" name="LMP2LT"> F  </i>
   <i type="logical" name="LUSEW"> F  </i>
   <i name="ENCUTGW">     -2.00000000</i>
   <i name="ENCUTGWSOFT">     -2.00000000</i>
   <i name="ENCUTLF">     -1.00000000</i>
   <i type="int" name="LMAXMP2">    -1</i>
   <i name="SCISSOR">      0.00000000</i>
   <i type="int" name="NOMEGA">     0</i>
   <i type="int" name="NOMEGAR">     0</i>
   <i type="int" name="NBANDSGW">    -1</i>
   <i type="int" name="NBANDSO">    -1</i>
   <i type="int" name="NBANDSV">    -1</i>
   <i type="int" name="NELM">     1</i>
   <i type="int" name="NELMHF">     1</i>
   <i type="int" name="DIM">     3</i>
   <i type="int" name="ANTIRES">     0</i>
   <i name="OMEGAMAX">    -30.00000000</i>
   <i name="OMEGAMIN">    -30.00000000</i>
   <i name="OMEGATL">   -200.00000000</i>
   <i type="int" name="OMEGAGRID">   140</i>
   <i name="CSHIFT">     -0.10000000</i>
   <i type="logical" name="SELFENERGY"> F  </i>
   <i type="logical" name="LSPECTRAL"> F  </i>
   <i type="logical" name="LSPECTRALGW"> F  </i>
   <i type="logical" name="LSINGLES"> F  </i>
   <i type="logical" name="LFERMIGW"> F  </i>
   <i type="logical" name="ODDONLYGW"> F  </i>
   <i type="logical" name="EVENONLYGW"> F  </i>
   <i type="int" name="NKREDLFX">     1</i>
   <i type="int" name="NKREDLFY">     1</i>
   <i type="int" name="NKREDLFZ">     1</i>
   <i type="int" name="MAXMEM">  2800</i>
   <i type="int" name="TELESCOPE">     0</i>
   <i type="int" name="TAUPAR">     1</i>
   <i type="int" name="OMEGAPAR">    -1</i>
   <i name="LAMBDA">      1.00000000</i>
  </separator>
  <separator name="External order field" >
   <i name="OFIELD_KAPPA">      0.00000000</i>
   <v name="OFIELD_K">      0.00000000      0.00000000      0.00000000</v>
   <i name="OFIELD_Q6_NEAR">      0.00000000</i>
   <i name="OFIELD_Q6_FAR">      0.00000000</i>
   <i name="OFIELD_A">      0.00000000</i>
  </separator>
 </parameters>
 <atominfo>
  <atoms>       2 </atoms>
  <types>       1 </types>
  <array name="atoms" >
   <dimension dim="1">ion</dimension>
   <field type="string">element</field>
   <field type="int">atomtype</field>
   <set>
    <rc><c>Ge</c><c>   1</c></rc>
    <rc><c>Ge</c><c>   1</c></rc>
   </set>
  </array>
  <array name="atomtypes" >
   <dimension dim="1">type</dimension>
   <field type="int">atomspertype</field>
   <field type="string">element</field>
   <field>mass</field>
   <field>valence</field>
   <field type="string">pseudopotential</field>
   <set>
    <rc><c>   2</c><c>Ge</c><c>     72.61000000</c><c>      4.00000000</c><c>  PAW_PBE Ge 05Jan2001                  </c></rc>
   </set>
  </array>
 </atominfo>
 <structure name="initialpos" >
  <crystal>
   <varray name="basis" >
    <v>       0.00000000       2.81650000       2.81650000 </v>
    <v>       2.81650000       0.00000000       2.81650000 </v>
    <v>       2.81650000       2.81650000       0.00000000 </v>
   </varray>
   <i name="volume">     44.68474278 </i>
   <varray name="rec_basis" >
    <v>      -0.17752530       0.17752530       0.17752530 </v>
    <v>       0.17752530      -0.17752530       0.17752530 </v>
    <v>       0.17752530       0.17752530      -0.17752530 </v>
   </varray>
  </crystal>
  <varray name="positions" >
   <v>       0.00000000       0.00000000       0.00000000 </v>
   <v>       0.25000000       0.25000000       0.25000000 </v>
  </varray>
 </structure>
 <calculation>
  <scstep>
   <time name="total">    1.01    2.04</time>
   <energy>
    <i name="alphaZ">     17.10940282 </i>
    <i name="ewald">   -220.32663596 </i>
    <i name="hartreedc">    -15.48905703 </i>
    <i name="XCdc">    -14.36573775 </i>
    <i name="pawpsdc">    470.53600263 </i>
    <i name="pawaedc">   -442.53245514 </i>
    <i name="eentropy">      0.00005798 </i>
    <i name="bandstr">     48.71373945 </i>
    <i name="atom">    209.99145059 </i>
    <i name="e_fr_energy">     53.63679782 </i>
    <i name="e_wo_entrp">     53.63673984 </i>
    <i name="e_0_energy">     53.63677849 </i>
   </energy>
  </scstep>
  <scstep>
   <time name="total">    0.99    1.97</time>
   <energy>
    <i name="e_fr_energy">     43.13082814 </i>
    <i name="e_wo_entrp">     43.13104241 </i>
    <i name="e_0_energy">     43.13089956 </i>
   </energy>
  </scstep>
  <scstep>
   <time name="total">    0.98    1.98</time>
   <energy>
    <i name="e_fr_energy">     32.23053888 </i>
    <i name="e_wo_entrp">     32.23036937 </i>
    <i name="e_0_energy">     32.23048238 </i>
   </energy>
  </scstep>
  <scstep>
   <time name="total">    0.98    1.96</time>
   <energy>
    <i name="e_fr_energy">     17.57436958 </i>
    <i name="e_wo_entrp">     17.57420930 </i>
    <i name="e_0_energy">     17.57431616 </i>
   </energy>
  </scstep>
  <scstep>
   <time name="total">    0.97    1.94</time>
   <energy>
    <i name="e_fr_energy">      8.32128160 </i>
    <i name="e_wo_entrp">      8.32122848 </i>
    <i name="e_0_energy">      8.32126389 </i>
   </energy>
  </scstep>
  <scstep>
   <time name="total">    0.98    1.97</time>
   <energy>
    <i name="e_fr_energy">      1.57254868 </i>
    <i name="e_wo_entrp">      1.57292042 </i>
    <i name="e_0_energy">      1.57267260 </i>
   </energy>
  </scstep>
  <scstep>
   <time name="total">    0.98    1.97</time>
   <energy>
    <i name="e_fr_energy">     -1.24876363 </i>
    <i name="e_wo_entrp">     -1.24901358 </i>
    <i name="e_0_energy">     -1.24884695 </i>
   </energy>
  </scstep>
  <scstep>
   <time name="total">    0.97    1.95</time>
   <energy>
    <i name="e_fr_energy">     -2.57770413 </i>
    <i name="e_wo_entrp">     -2.57807444 </i>
    <i name="e_0_energy">     -2.57782756 </i>
   </energy>
  </scstep>
  <scstep>
   <time name="total">    0.97    1.95</time>
   <energy>
    <i name="e_fr_energy">     -3.18329284 </i>
    <i name="e_wo_entrp">     -3.18390143 </i>
    <i name="e_0_energy">     -3.18349570 </i>
   </energy>
  </scstep>
  <scstep>
   <time name="total">    0.97    1.97</time>
   <energy>
    <i name="e_fr_energy">     -3.45964221 </i>
    <i name="e_wo_entrp">     -3.46023447 </i>
    <i name="e_0_energy">     -3.45983963 </i>
   </energy>
  </scstep>
  <scstep>
   <time name="total">    0.97    1.96</time>
   <energy>
    <i name="e_fr_energy">     -3.57654683 </i>
    <i name="e_wo_entrp">     -3.57680923 </i>
    <i name="e_0_energy">     -3.57663430 </i>
   </energy>
  </scstep>
  <scstep>
   <time name="total">    0.97    1.95</time>
   <energy>
    <i name="e_fr_energy">     -3.62194186 </i>
    <i name="e_wo_entrp">     -3.62258797 </i>
    <i name="e_0_energy">     -3.62215723 </i>
   </energy>
  </scstep>
  <scstep>
   <time name="total">    0.97    1.95</time>
   <energy>
    <i name="e_fr_energy">     -3.63777227 </i>
    <i name="e_wo_entrp">     -3.63777227 </i>
    <i name="e_0_energy">     -3.63777227 </i>
   </energy>
  </scstep>
  <scstep>
   <time name="total">    0.97    1.95</time>
   <energy>
    <i name="e_fr_energy">     -3.64352038 </i>
    <i name="e_wo_entrp">     -3.64414613 </i>
    <i name="e_0_energy">     -3.64372897 </i>
   </energy>
  </scstep>
  <scstep>
   <time name="total">    0.97    1.95</time>
   <energy>
    <i name="e_fr_energy">     -3.64472113 </i>
    <i name="e_wo_entrp">     -3.64534350 </i>
    <i name="e_0_energy">     -3.64492859 </i>
   </energy>
  </scstep>
  <scstep>
   <time name="total">    0.97    1.96</time>
   <energy>
    <i name="e_fr_energy">     -3.64518105 </i>
    <i name="e_wo_entrp">     -3.64518105 </i>
    <i name="e_0_energy">     -3.64518105 </i>
   </energy>
  </scstep>
  <scstep>
   <time name="total">    0.98    1.97</time>
   <energy>
    <i name="e_fr_energy">     -3.64572617 </i>
    <i name="e_wo_entrp">     -3.64634572 </i>
    <i name="e_0_energy">     -3.64593269 </i>
   </energy>
  </scstep>
  <scstep>
   <time name="total">    0.98    1.97</time>
   <energy>
    <i name="e_fr_energy">     -3.64532213 </i>
    <i name="e_wo_entrp">     -3.64594124 </i>
    <i name="e_0_energy">     -3.64552850 </i>
   </energy>
  </scstep>
  <scstep>
   <time name="total">    1.62    3.27</time>
   <energy>
    <i name="alphaZ">     17.10940282 </i>
    <i name="ewald">   -220.32663596 </i>
    <i name="hartreedc">    -15.48905703 </i>
    <i name="XCdc">    -14.36573775 </i>
    <i name="pawpsdc">    470.53600263 </i>
    <i name="pawaedc">   -442.53245514 </i>
    <i name="eentropy">      0.00061893 </i>
    <i name="bandstr">     -8.56891496 </i>
    <i name="atom">    209.99145059 </i>
    <i name="e_fr_energy">     -3.64532571 </i>
    <i name="e_wo_entrp">     -3.64594464 </i>
    <i name="e_0_energy">     -3.64553202 </i>
   </energy>
  </scstep>
  <structure>
   <crystal>
    <varray name="basis" >
     <v>       0.00000000       2.81650000       2.81650000 </v>
     <v>       2.81650000       0.00000000       2.81650000 </v>
     <v>       2.81650000       2.81650000       0.00000000 </v>
    </varray>
    <i name="volume">     44.68474278 </i>
    <varray name="rec_basis" >
     <v>      -0.17752530       0.17752530       0.17752530 </v>
     <v>       0.17752530      -0.17752530       0.17752530 </v>
     <v>       0.17752530       0.17752530      -0.17752530 </v>
    </varray>
   </crystal>
   <varray name="positions" >
    <v>       0.00000000       0.00000000       0.00000000 </v>
    <v>       0.25000000       0.25000000       0.25000000 </v>
   </varray>
  </structure>
  <varray name="forces" >
   <v>       0.00000000       0.00000000      -0.00000000 </v>
   <v>      -0.00000000      -0.00000000       0.00000000 </v>
  </varray>
  <varray name="stress" >
   <v>     337.26782959       0.00000000      -0.00000000 </v>
   <v>       0.00000000     337.26782959       0.00000000 </v>
   <v>      -0.00000000      -0.00000000     337.26782959 </v>
  </varray>
  <energy>
   <i name="e_fr_energy">     -3.64532571 </i>
   <i name="e_wo_entrp">     -3.64553202 </i>
   <i name="e_0_energy">      0.00061893 </i>
  </energy>
  <time name="totalsc">   19.71   39.63</time>
  <eigenvalues>
   <array>
    <dimension dim="1">band</dimension>
    <dimension dim="2">kpoint</dimension>
    <dimension dim="3">spin</dimension>
    <field>eigene</field>
    <field>occ</field>
    <set>
     <set comment="spin 1">
      <set comment="kpoint 1">
       <r>   -6.8950    1.0000 </r>
       <r>   -3.9284    1.0000 </r>
       <r>    2.0842    1.0000 </r>
       <r>    2.0842    1.0000 </r>
       <r>    4.0492   -0.0000 </r>
       <r>    7.4255    0.0000 </r>
       <r>    7.4255    0.0000 </r>
       <r>   10.9149    0.0000 </r>
       <r>   14.2951    0.0000 </r>
       <r>   14.8513    0.0000 </r>
       <r>   14.9264    0.0000 </r>
       <r>   14.9264    0.0000 </r>
       <r>   16.0419    0.0000 </r>
       <r>   16.0419    0.0000 </r>
       <r>   22.5769    0.0000 </r>
       <r>   23.8407    0.0000 </r>
       <r>   25.3040    0.0000 </r>
       <r>   25.3040    0.0000 </r>
       <r>   25.4695    0.0000 </r>
       <r>   25.4695    0.0000 </r>
       <r>   28.7848    0.0000 </r>
       <r>   29.9704    0.0000 </r>
       <r>   30.2498    0.0000 </r>
       <r>   30.2498    0.0000 </r>
       <r>   30.7693    0.0000 </r>
       <r>   30.7693    0.0000 </r>
       <r>   31.6748    0.0000 </r>
       <r>   35.1024    0.0000 </r>
       <r>   35.1024    0.0000 </r>
       <r>   35.2960    0.0000 </r>
       <r>   35.2960    0.0000 </r>
       <r>   36.1145    0.0000 </r>
       <r>   37.2400    0.0000 </r>
       <r>   37.3739    0.0000 </r>
       <r>   42.4916    0.0000 </r>
       <r>   42.4918    0.0000 </r>
       <r>   42.7475    0.0000 </r>
       <r>   43.6929    0.0000 </r>
       <r>   43.6930    0.0000 </r>
       <r>   44.6997    0.0000 </r>
       <r>   48.2186    0.0000 </r>
       <r>   48.2487    0.0000 </r>
       <r>   50.4530    0.0000 </r>
       <r>   50.6755    0.0000 </r>
       <r>   51.2326    0.0000 </r>
       <r>   54.2965    0.0000 </r>
       <r>   54.4866    0.0000 </r>
       <r>   56.8435    0.0000 </r>
       <r>   58.8182    0.0000 </r>
       <r>   58.9786    0.0000 </r>
       <r>   59.0089    0.0000 </r>
       <r>   62.9296    0.0000 </r>
       <r>   64.0600    0.0000 </r>
       <r>   64.3394    0.0000 </r>
       <r>   68.9748    0.0000 </r>
       <r>   69.2077    0.0000 </r>
      </set>
      <set comment="kpoint 2">
       <r>   -6.8999    1.0000 </r>
       <r>   -3.9209    1.0000 </r>
       <r>    2.0851    1.0000 </r>
       <r>    2.0851    1.0000 </r>
       <r>    4.0500   -0.0000 </r>
       <r>    7.4258    0.0000 </r>
       <r>    7.4258    0.0000 </r>
       <r>   10.9160    0.0000 </r>
       <r>   14.2258    0.0000 </r>
       <r>   14.8910    0.0000 </r>
       <r>   14.8910    0.0000 </r>
       <r>   14.9188    0.0000 </r>
       <r>   16.0813    0.0000 </r>
       <r>   16.0813    0.0000 </r>
       <r>   22.5081    0.0000 </r>
       <r>   23.9145    0.0000 </r>
       <r>   25.0777    0.0000 </r>
       <r>   25.0777    0.0000 </r>
       <r>   25.6977    0.0000 </r>
       <r>   25.6977    0.0000 </r>
       <r>   28.7041    0.0000 </r>
       <r>   30.0517    0.0000 </r>
       <r>   30.2485    0.0000 </r>
       <r>   30.2485    0.0000 </r>
       <r>   30.7676    0.0000 </r>
       <r>   30.7676    0.0000 </r>
       <r>   31.6724    0.0000 </r>
       <r>   35.1044    0.0000 </r>
       <r>   35.1044    0.0000 </r>
       <r>   35.3028    0.0000 </r>
       <r>   35.3028    0.0000 </r>
       <r>   36.1066    0.0000 </r>
       <r>   37.2453    0.0000 </r>
       <r>   37.3864    0.0000 </r>
       <r>   42.4916    0.0000 </r>
       <r>   42.4918    0.0000 </r>
       <r>   42.7487    0.0000 </r>
       <r>   43.6922    0.0000 </r>
       <r>   43.6922    0.0000 </r>
       <r>   44.7001    0.0000 </r>
       <r>   48.0374    0.0000 </r>
       <r>   48.0482    0.0000 </r>
       <r>   50.2533    0.0000 </r>
       <r>   50.4153    0.0000 </r>
       <r>   50.8348    0.0000 </r>
       <r>   54.2073    0.0000 </r>
       <r>   54.3267    0.0000 </r>
       <r>   55.9305    0.0000 </r>
       <r>   57.8585    0.0000 </r>
       <r>   58.6797    0.0000 </r>
       <r>   58.6872    0.0000 </r>
       <r>   62.5757    0.0000 </r>
       <r>   63.9160    0.0000 </r>
       <r>   64.0917    0.0000 </r>
       <r>   68.3642    0.0000 </r>
       <r>   68.7949    0.0000 </r>
      </set>
      <set comment="kpoint 3">
       <r>   -6.9144    1.0000 </r>
       <r>   -3.8985    1.0000 </r>
       <r>    2.0879    1.0000 </r>
       <r>    2.0879    1.0000 </r>
       <r>    4.0525   -0.0000 </r>
       <r>    7.4266    0.0000 </r>
       <r>    7.4266    0.0000 </r>
       <r>   10.9193    0.0000 </r>
       <r>   14.0722    0.0000 </r>
       <r>   14.7966    0.0000 </r>
       <r>   14.7966    0.0000 </r>
       <r>   15.0672    0.0000 </r>
       <r>   16.1872    0.0000 </r>
       <r>   16.1872    0.0000 </r>
       <r>   22.3366    0.0000 </r>
       <r>   24.1013    0.0000 </r>
       <r>   24.7874    0.0000 </r>
       <r>   24.7874    0.0000 </r>
       <r>   25.9931    0.0000 </r>
       <r>   25.9931    0.0000 </r>
       <r>   28.5069    0.0000 </r>
       <r>   30.2445    0.0000 </r>
       <r>   30.2445    0.0000 </r>
       <r>   30.2511    0.0000 </r>
       <r>   30.7620    0.0000 </r>
       <r>   30.7620    0.0000 </r>
       <r>   31.6651    0.0000 </r>
       <r>   35.1105    0.0000 </r>
       <r>   35.1105    0.0000 </r>
       <r>   35.3225    0.0000 </r>
       <r>   35.3225    0.0000 </r>
       <r>   36.0840    0.0000 </r>
       <r>   37.2612    0.0000 </r>
       <r>   37.4231    0.0000 </r>
       <r>   42.4931    0.0000 </r>
       <r>   42.4987    0.0000 </r>
       <r>   42.7503    0.0000 </r>
       <r>   43.6910    0.0000 </r>
       <r>   43.6911    0.0000 </r>
       <r>   44.6976    0.0000 </r>
       <r>   47.7900    0.0000 </r>
       <r>   47.7975    0.0000 </r>
       <r>   49.9267    0.0000 </r>
       <r>   49.9541    0.0000 </r>
       <r>   50.1863    0.0000 </r>
       <r>   52.8577    0.0000 </r>
       <r>   53.5165    0.0000 </r>
       <r>   54.5199    0.0000 </r>
       <r>   56.6857    0.0000 </r>
       <r>   58.4011    0.0000 </r>
       <r>   59.4130    0.0000 </r>
       <r>   59.6753    0.0000 </r>
       <r>   62.9645    0.0000 </r>
       <r>   64.0609    0.0000 </r>
       <r>   66.6599    0.0000 </r>
       <r>   66.8445    0.0000 </r>
      </set>
      <set comment="kpoint 4">
       <r>   -6.9381    1.0000 </r>
       <r>   -3.8616    1.0000 </r>
       <r>    2.0925    1.0000 </r>
       <r>    2.0925    1.0000 </r>
       <r>    4.0565   -0.0000 </r>
       <r>    7.4280    0.0000 </r>
       <r>    7.4280    0.0000 </r>
       <r>   10.9247    0.0000 </r>
       <r>   13.8886    0.0000 </r>
       <r>   14.6658    0.0000 </r>
       <r>   14.6658    0.0000 </r>
       <r>   15.2412    0.0000 </r>
       <r>   16.3372    0.0000 </r>
       <r>   16.3372    0.0000 </r>
       <r>   22.1152    0.0000 </r>
       <r>   24.3482    0.0000 </r>
       <r>   24.4956    0.0000 </r>
       <r>   24.4956    0.0000 </r>
       <r>   26.2932    0.0000 </r>
       <r>   26.2932    0.0000 </r>
       <r>   28.2553    0.0000 </r>
       <r>   30.2379    0.0000 </r>
       <r>   30.2380    0.0000 </r>
       <r>   30.5062    0.0000 </r>
       <r>   30.7531    0.0000 </r>
       <r>   30.7531    0.0000 </r>
       <r>   31.6533    0.0000 </r>
       <r>   35.1220    0.0000 </r>
       <r>   35.1239    0.0000 </r>
       <r>   35.3542    0.0000 </r>
       <r>   35.3548    0.0000 </r>
       <r>   36.0500    0.0000 </r>
       <r>   37.2959    0.0000 </r>
       <r>   37.4812    0.0000 </r>
       <r>   42.6024    0.0000 </r>
       <r>   42.6910    0.0000 </r>
       <r>   43.0243    0.0000 </r>
       <r>   43.9264    0.0000 </r>
       <r>   44.0789    0.0000 </r>
       <r>   44.2676    0.0000 </r>
       <r>   47.5022    0.0000 </r>
       <r>   47.8514    0.0000 </r>
       <r>   49.9898    0.0000 </r>
       <r>   51.0582    0.0000 </r>
       <r>   52.3758    0.0000 </r>
       <r>   52.9555    0.0000 </r>
       <r>   53.6835    0.0000 </r>
       <r>   55.9717    0.0000 </r>
       <r>   58.5516    0.0000 </r>
       <r>   59.0807    0.0000 </r>
       <r>   60.0478    0.0000 </r>
       <r>   60.1814    0.0000 </r>
       <r>   62.3144    0.0000 </r>
       <r>   64.0122    0.0000 </r>
       <r>   64.4675    0.0000 </r>
       <r>   69.9342    0.0000 </r>
      </set>
      <set comment="kpoint 5">
       <r>   -6.9703    1.0000 </r>
       <r>   -3.8109    1.0000 </r>
       <r>    2.0990    1.0000 </r>
       <r>    2.0990    1.0000 </r>
       <r>    4.0622   -0.0000 </r>
       <r>    7.4299    0.0000 </r>
       <r>    7.4299    0.0000 </r>
       <r>   10.9320    0.0000 </r>
       <r>   13.6941    0.0000 </r>
       <r>   14.5158    0.0000 </r>
       <r>   14.5158    0.0000 </r>
       <r>   15.4213    0.0000 </r>
       <r>   16.5143    0.0000 </r>
       <r>   16.5143    0.0000 </r>
       <r>   21.8747    0.0000 </r>
       <r>   24.2052    0.0000 </r>
       <r>   24.2052    0.0000 </r>
       <r>   24.6243    0.0000 </r>
       <r>   26.5949    0.0000 </r>
       <r>   26.5949    0.0000 </r>
       <r>   27.9816    0.0000 </r>
       <r>   30.2291    0.0000 </r>
       <r>   30.2291    0.0000 </r>
       <r>   30.7410    0.0000 </r>
       <r>   30.7410    0.0000 </r>
       <r>   30.7850    0.0000 </r>
       <r>   31.6366    0.0000 </r>
       <r>   35.1386    0.0000 </r>
       <r>   35.1386    0.0000 </r>
       <r>   35.3967    0.0000 </r>
       <r>   35.3967    0.0000 </r>
       <r>   36.0089    0.0000 </r>
       <r>   37.3242    0.0000 </r>
       <r>   37.5564    0.0000 </r>
       <r>   42.4905    0.0000 </r>
       <r>   42.4905    0.0000 </r>
       <r>   42.7657    0.0000 </r>
       <r>   43.6774    0.0000 </r>
       <r>   43.6775    0.0000 </r>
       <r>   44.7087    0.0000 </r>
       <r>   47.1943    0.0000 </r>
       <r>   47.1949    0.0000 </r>
       <r>   49.6637    0.0000 </r>
       <r>   50.4490    0.0000 </r>
       <r>   50.4622    0.0000 </r>
       <r>   53.4136    0.0000 </r>
       <r>   53.6490    0.0000 </r>
       <r>   54.9148    0.0000 </r>
       <r>   55.9184    0.0000 </r>
       <r>   57.6069    0.0000 </r>
       <r>   57.7683    0.0000 </r>
       <r>   57.9359    0.0000 </r>
       <r>   61.3493    0.0000 </r>
       <r>   63.7965    0.0000 </r>
       <r>   66.5491    0.0000 </r>
       <r>   66.8186    0.0000 </r>
      </set>
      <set comment="kpoint 6">
       <r>   -7.0102    1.0000 </r>
       <r>   -3.7474    1.0000 </r>
       <r>    2.1074    1.0000 </r>
       <r>    2.1074    1.0000 </r>
       <r>    4.0696   -0.0000 </r>
       <r>    7.4321    0.0000 </r>
       <r>    7.4321    0.0000 </r>
       <r>   10.9411    0.0000 </r>
       <r>   13.4954    0.0000 </r>
       <r>   14.3566    0.0000 </r>
       <r>   14.3566    0.0000 </r>
       <r>   15.5994    0.0000 </r>
       <r>   16.7084    0.0000 </r>
       <r>   16.7084    0.0000 </r>
       <r>   21.6307    0.0000 </r>
       <r>   23.9169    0.0000 </r>
       <r>   23.9169    0.0000 </r>
       <r>   24.9137    0.0000 </r>
       <r>   26.8968    0.0000 </r>
       <r>   26.8968    0.0000 </r>
       <r>   27.7014    0.0000 </r>
       <r>   30.2185    0.0000 </r>
       <r>   30.2185    0.0000 </r>
       <r>   30.7262    0.0000 </r>
       <r>   30.7262    0.0000 </r>
       <r>   31.0727    0.0000 </r>
       <r>   31.6156    0.0000 </r>
       <r>   35.1622    0.0000 </r>
       <r>   35.1622    0.0000 </r>
       <r>   35.4489    0.0000 </r>
       <r>   35.4489    0.0000 </r>
       <r>   35.9651    0.0000 </r>
       <r>   37.3710    0.0000 </r>
       <r>   37.6461    0.0000 </r>
       <r>   42.4900    0.0000 </r>
       <r>   42.4900    0.0000 </r>
       <r>   42.7759    0.0000 </r>
       <r>   43.6648    0.0000 </r>
       <r>   43.6648    0.0000 </r>
       <r>   44.7137    0.0000 </r>
       <r>   46.8681    0.0000 </r>
       <r>   46.8683    0.0000 </r>
       <r>   49.3993    0.0000 </r>
       <r>   50.2388    0.0000 </r>
       <r>   50.5278    0.0000 </r>
       <r>   52.7778    0.0000 </r>
       <r>   53.0062    0.0000 </r>
       <r>   54.8190    0.0000 </r>
       <r>   56.2199    0.0000 </r>
       <r>   56.5915    0.0000 </r>
       <r>   57.5410    0.0000 </r>
       <r>   58.4569    0.0000 </r>
       <r>   61.3749    0.0000 </r>
       <r>   62.9795    0.0000 </r>
       <r>   63.2318    0.0000 </r>
       <r>   66.4697    0.0000 </r>
      </set>
      <set comment="kpoint 7">
       <r>   -7.0567    1.0000 </r>
       <r>   -3.6719    1.0000 </r>
       <r>    2.1176    1.0000 </r>
       <r>    2.1176    1.0000 </r>
       <r>    4.0785   -0.0000 </r>
       <r>    7.4346    0.0000 </r>
       <r>    7.4346    0.0000 </r>
       <r>   10.9515    0.0000 </r>
       <r>   13.2956    0.0000 </r>
       <r>   14.1937    0.0000 </r>
       <r>   14.1937    0.0000 </r>
       <r>   15.7709    0.0000 </r>
       <r>   16.9139    0.0000 </r>
       <r>   16.9139    0.0000 </r>
       <r>   21.3919    0.0000 </r>
       <r>   23.6309    0.0000 </r>
       <r>   23.6309    0.0000 </r>
       <r>   25.2054    0.0000 </r>
       <r>   27.1980    0.0000 </r>
       <r>   27.1980    0.0000 </r>
       <r>   27.4249    0.0000 </r>
       <r>   30.2065    0.0000 </r>
       <r>   30.2065    0.0000 </r>
       <r>   30.7095    0.0000 </r>
       <r>   30.7095    0.0000 </r>
       <r>   31.3613    0.0000 </r>
       <r>   31.5906    0.0000 </r>
       <r>   35.1928    0.0000 </r>
       <r>   35.1928    0.0000 </r>
       <r>   35.5100    0.0000 </r>
       <r>   35.5101    0.0000 </r>
       <r>   35.9233    0.0000 </r>
       <r>   37.4279    0.0000 </r>
       <r>   37.7471    0.0000 </r>
       <r>   42.4972    0.0000 </r>
       <r>   42.5420    0.0000 </r>
       <r>   42.7893    0.0000 </r>
       <r>   43.6451    0.0000 </r>
       <r>   43.6476    0.0000 </r>
       <r>   44.7211    0.0000 </r>
       <r>   46.5396    0.0000 </r>
       <r>   46.5540    0.0000 </r>
       <r>   49.1640    0.0000 </r>
       <r>   50.6335    0.0000 </r>
       <r>   51.0149    0.0000 </r>
       <r>   53.0499    0.0000 </r>
       <r>   53.3543    0.0000 </r>
       <r>   54.7109    0.0000 </r>
       <r>   55.4152    0.0000 </r>
       <r>   56.4411    0.0000 </r>
       <r>   57.6118    0.0000 </r>
       <r>   58.7280    0.0000 </r>
       <r>   59.5055    0.0000 </r>
       <r>   62.9947    0.0000 </r>
       <r>   64.3988    0.0000 </r>
       <r>   66.6133    0.0000 </r>
      </set>
      <set comment="kpoint 8">
       <r>   -7.1090    1.0000 </r>
       <r>   -3.5855    1.0000 </r>
       <r>    2.1296    1.0000 </r>
       <r>    2.1296    1.0000 </r>
       <r>    4.0891   -0.0000 </r>
       <r>    7.4373    0.0000 </r>
       <r>    7.4373    0.0000 </r>
       <r>   10.9629    0.0000 </r>
       <r>   13.0965    0.0000 </r>
       <r>   14.0305    0.0000 </r>
       <r>   14.0305    0.0000 </r>
       <r>   15.9318    0.0000 </r>
       <r>   17.1279    0.0000 </r>
       <r>   17.1279    0.0000 </r>
       <r>   21.1645    0.0000 </r>
       <r>   23.3476    0.0000 </r>
       <r>   23.3476    0.0000 </r>
       <r>   25.4859    0.0000 </r>
       <r>   27.1654    0.0000 </r>
       <r>   27.4970    0.0000 </r>
       <r>   27.4970    0.0000 </r>
       <r>   30.1937    0.0000 </r>
       <r>   30.1940    0.0000 </r>
       <r>   30.6920    0.0000 </r>
       <r>   30.6920    0.0000 </r>
       <r>   31.5621    0.0000 </r>
       <r>   31.6455    0.0000 </r>
       <r>   35.2306    0.0000 </r>
       <r>   35.2373    0.0000 </r>
       <r>   35.5792    0.0000 </r>
       <r>   35.5960    0.0000 </r>
       <r>   35.8878    0.0000 </r>
       <r>   37.5430    0.0000 </r>
       <r>   37.8285    0.0000 </r>
       <r>   42.5876    0.0000 </r>
       <r>   42.6543    0.0000 </r>
       <r>   42.9945    0.0000 </r>
       <r>   43.5656    0.0000 </r>
       <r>   43.9628    0.0000 </r>
       <r>   44.9266    0.0000 </r>
       <r>   46.2267    0.0000 </r>
       <r>   47.4829    0.0000 </r>
       <r>   48.8273    0.0000 </r>
       <r>   51.1532    0.0000 </r>
       <r>   51.8047    0.0000 </r>
       <r>   53.5131    0.0000 </r>
       <r>   53.7039    0.0000 </r>
       <r>   56.3743    0.0000 </r>
       <r>   56.6468    0.0000 </r>
       <r>   58.6251    0.0000 </r>
       <r>   58.6454    0.0000 </r>
       <r>   62.9943    0.0000 </r>
       <r>   65.2145    0.0000 </r>
       <r>   66.7257    0.0000 </r>
       <r>   69.0827    0.0000 </r>
       <r>   73.2243    0.0000 </r>
      </set>
      <set comment="kpoint 9">
       <r>   -7.1660    1.0000 </r>
       <r>   -3.4892    1.0000 </r>
       <r>    2.1435    1.0000 </r>
       <r>    2.1435    1.0000 </r>
       <r>    4.1012   -0.0000 </r>
       <r>    7.4400    0.0000 </r>
       <r>    7.4400    0.0000 </r>
       <r>   10.9745    0.0000 </r>
       <r>   12.8996    0.0000 </r>
       <r>   13.8688    0.0000 </r>
       <r>   13.8688    0.0000 </r>
       <r>   16.0778    0.0000 </r>
       <r>   17.3483    0.0000 </r>
       <r>   17.3483    0.0000 </r>
       <r>   20.9540    0.0000 </r>
       <r>   23.0671    0.0000 </r>
       <r>   23.0671    0.0000 </r>
       <r>   25.7267    0.0000 </r>
       <r>   26.9510    0.0000 </r>
       <r>   27.7920    0.0000 </r>
       <r>   27.7920    0.0000 </r>
       <r>   30.1811    0.0000 </r>
       <r>   30.1811    0.0000 </r>
       <r>   30.6751    0.0000 </r>
       <r>   30.6751    0.0000 </r>
       <r>   31.5293    0.0000 </r>
       <r>   31.9201    0.0000 </r>
       <r>   35.2756    0.0000 </r>
       <r>   35.2757    0.0000 </r>
       <r>   35.6557    0.0000 </r>
       <r>   35.6557    0.0000 </r>
       <r>   35.8630    0.0000 </r>
       <r>   37.5695    0.0000 </r>
       <r>   37.9737    0.0000 </r>
       <r>   42.4895    0.0000 </r>
       <r>   42.5011    0.0000 </r>
       <r>   42.8218    0.0000 </r>
       <r>   43.5662    0.0000 </r>
       <r>   43.5686    0.0000 </r>
       <r>   44.7359    0.0000 </r>
       <r>   45.9043    0.0000 </r>
       <r>   45.9163    0.0000 </r>
       <r>   48.5882    0.0000 </r>
       <r>   50.6022    0.0000 </r>
       <r>   51.5395    0.0000 </r>
       <r>   52.8359    0.0000 </r>
       <r>   53.0308    0.0000 </r>
       <r>   55.5719    0.0000 </r>
       <r>   56.4324    0.0000 </r>
       <r>   57.0644    0.0000 </r>
       <r>   57.3221    0.0000 </r>
       <r>   60.3475    0.0000 </r>
       <r>   62.3931    0.0000 </r>
       <r>   63.2155    0.0000 </r>
       <r>   64.5981    0.0000 </r>
       <r>   67.9101    0.0000 </r>
      </set>
      <set comment="kpoint 10">
       <r>   -7.2269    1.0000 </r>
       <r>   -3.3837    1.0000 </r>
       <r>    2.1591    1.0000 </r>
       <r>    2.1591    1.0000 </r>
       <r>    4.1149   -0.0000 </r>
       <r>    7.4425    0.0000 </r>
       <r>    7.4425    0.0000 </r>
       <r>   10.9852    0.0000 </r>
       <r>   12.7064    0.0000 </r>
       <r>   13.7101    0.0000 </r>
       <r>   13.7101    0.0000 </r>
       <r>   16.2045    0.0000 </r>
       <r>   17.5738    0.0000 </r>
       <r>   17.5738    0.0000 </r>
       <r>   20.7658    0.0000 </r>
       <r>   22.7897    0.0000 </r>
       <r>   22.7897    0.0000 </r>
       <r>   25.8580    0.0000 </r>
       <r>   26.8515    0.0000 </r>
       <r>   28.0802    0.0000 </r>
       <r>   28.0802    0.0000 </r>
       <r>   30.1695    0.0000 </r>
       <r>   30.1695    0.0000 </r>
       <r>   30.6611    0.0000 </r>
       <r>   30.6611    0.0000 </r>
       <r>   31.4937    0.0000 </r>
       <r>   32.1803    0.0000 </r>
       <r>   35.3278    0.0000 </r>
       <r>   35.3278    0.0000 </r>
       <r>   35.7389    0.0000 </r>
       <r>   35.7389    0.0000 </r>
       <r>   35.8542    0.0000 </r>
       <r>   37.6537    0.0000 </r>
       <r>   38.0963    0.0000 </r>
       <r>   42.4895    0.0000 </r>
       <r>   42.4896    0.0000 </r>
       <r>   42.8411    0.0000 </r>
       <r>   43.4946    0.0000 </r>
       <r>   43.4946    0.0000 </r>
       <r>   44.7433    0.0000 </r>
       <r>   45.6155    0.0000 </r>
       <r>   45.6155    0.0000 </r>
       <r>   48.3009    0.0000 </r>
       <r>   50.4973    0.0000 </r>
       <r>   50.6432    0.0000 </r>
       <r>   52.4330    0.0000 </r>
       <r>   52.6894    0.0000 </r>
       <r>   54.6383    0.0000 </r>
       <r>   55.1816    0.0000 </r>
       <r>   55.4895    0.0000 </r>
       <r>   55.6331    0.0000 </r>
       <r>   55.9876    0.0000 </r>
       <r>   58.0385    0.0000 </r>
       <r>   62.7327    0.0000 </r>
       <r>   63.7416    0.0000 </r>
       <r>   65.9597    0.0000 </r>
      </set>
      <set comment="kpoint 11">
       <r>   -7.2907    1.0000 </r>
       <r>   -3.2701    1.0000 </r>
       <r>    2.1766    1.0000 </r>
       <r>    2.1766    1.0000 </r>
       <r>    4.1303   -0.0000 </r>
       <r>    7.4447    0.0000 </r>
       <r>    7.4447    0.0000 </r>
       <r>   10.9936    0.0000 </r>
       <r>   12.5188    0.0000 </r>
       <r>   13.5553    0.0000 </r>
       <r>   13.5553    0.0000 </r>
       <r>   16.3068    0.0000 </r>
       <r>   17.8035    0.0000 </r>
       <r>   17.8035    0.0000 </r>
       <r>   20.6056    0.0000 </r>
       <r>   22.5155    0.0000 </r>
       <r>   22.5155    0.0000 </r>
       <r>   25.8033    0.0000 </r>
       <r>   26.9429    0.0000 </r>
       <r>   28.3574    0.0000 </r>
       <r>   28.3574    0.0000 </r>
       <r>   30.1598    0.0000 </r>
       <r>   30.1598    0.0000 </r>
       <r>   30.6537    0.0000 </r>
       <r>   30.6537    0.0000 </r>
       <r>   31.4552    0.0000 </r>
       <r>   32.4206    0.0000 </r>
       <r>   35.3869    0.0000 </r>
       <r>   35.3869    0.0000 </r>
       <r>   35.8281    0.0000 </r>
       <r>   35.8282    0.0000 </r>
       <r>   35.8666    0.0000 </r>
       <r>   37.7467    0.0000 </r>
       <r>   38.2236    0.0000 </r>
       <r>   42.4908    0.0000 </r>
       <r>   42.5151    0.0000 </r>
       <r>   42.8824    0.0000 </r>
       <r>   43.3906    0.0000 </r>
       <r>   43.4244    0.0000 </r>
       <r>   44.8199    0.0000 </r>
       <r>   45.3070    0.0000 </r>
       <r>   45.3589    0.0000 </r>
       <r>   47.9923    0.0000 </r>
       <r>   50.4834    0.0000 </r>
       <r>   50.8678    0.0000 </r>
       <r>   52.4462    0.0000 </r>
       <r>   52.6454    0.0000 </r>
       <r>   55.3890    0.0000 </r>
       <r>   56.0163    0.0000 </r>
       <r>   56.2052    0.0000 </r>
       <r>   56.9691    0.0000 </r>
       <r>   59.6490    0.0000 </r>
       <r>   60.2681    0.0000 </r>
       <r>   62.1476    0.0000 </r>
       <r>   63.3740    0.0000 </r>
       <r>   66.8830    0.0000 </r>
      </set>
      <set comment="kpoint 12">
       <r>   -7.3569    1.0000 </r>
       <r>   -3.1490    1.0000 </r>
       <r>    2.1959    1.0000 </r>
       <r>    2.1959    1.0000 </r>
       <r>    4.1471   -0.0000 </r>
       <r>    7.4462    0.0000 </r>
       <r>    7.4462    0.0000 </r>
       <r>   10.9972    0.0000 </r>
       <r>   12.3393    0.0000 </r>
       <r>   13.4051    0.0000 </r>
       <r>   13.4051    0.0000 </r>
       <r>   16.3794    0.0000 </r>
       <r>   18.0368    0.0000 </r>
       <r>   18.0368    0.0000 </r>
       <r>   20.4789    0.0000 </r>
       <r>   22.2450    0.0000 </r>
       <r>   22.2450    0.0000 </r>
       <r>   25.6131    0.0000 </r>
       <r>   27.1751    0.0000 </r>
       <r>   28.6178    0.0000 </r>
       <r>   28.6180    0.0000 </r>
       <r>   30.1529    0.0000 </r>
       <r>   30.1529    0.0000 </r>
       <r>   30.6593    0.0000 </r>
       <r>   30.6593    0.0000 </r>
       <r>   31.4151    0.0000 </r>
       <r>   32.6354    0.0000 </r>
       <r>   35.4535    0.0000 </r>
       <r>   35.4850    0.0000 </r>
       <r>   35.9068    0.0000 </r>
       <r>   35.9238    0.0000 </r>
       <r>   36.0258    0.0000 </r>
       <r>   38.1705    0.0000 </r>
       <r>   38.3501    0.0000 </r>
       <r>   42.6248    0.0000 </r>
       <r>   42.8846    0.0000 </r>
       <r>   43.4046    0.0000 </r>
       <r>   43.6850    0.0000 </r>
       <r>   44.3355    0.0000 </r>
       <r>   44.5018    0.0000 </r>
       <r>   44.7713    0.0000 </r>
       <r>   47.2617    0.0000 </r>
       <r>   50.9994    0.0000 </r>
       <r>   51.2975    0.0000 </r>
       <r>   51.5767    0.0000 </r>
       <r>   53.4440    0.0000 </r>
       <r>   53.9188    0.0000 </r>
       <r>   56.0888    0.0000 </r>
       <r>   57.7060    0.0000 </r>
       <r>   59.6028    0.0000 </r>
       <r>   62.1318    0.0000 </r>
       <r>   63.1394    0.0000 </r>
       <r>   63.2898    0.0000 </r>
       <r>   68.5023    0.0000 </r>
       <r>   70.5110    0.0000 </r>
       <r>   76.2452    0.0000 </r>
      </set>
      <set comment="kpoint 13">
       <r>   -7.4247    1.0000 </r>
       <r>   -3.0211    1.0000 </r>
       <r>    2.2170    1.0000 </r>
       <r>    2.2170    1.0000 </r>
       <r>    4.1655   -0.0000 </r>
       <r>    7.4469    0.0000 </r>
       <r>    7.4469    0.0000 </r>
       <r>   10.9923    0.0000 </r>
       <r>   12.1716    0.0000 </r>
       <r>   13.2603    0.0000 </r>
       <r>   13.2603    0.0000 </r>
       <r>   16.4177    0.0000 </r>
       <r>   18.2726    0.0000 </r>
       <r>   18.2726    0.0000 </r>
       <r>   20.3906    0.0000 </r>
       <r>   21.9784    0.0000 </r>
       <r>   21.9784    0.0000 </r>
       <r>   25.3672    0.0000 </r>
       <r>   27.4677    0.0000 </r>
       <r>   28.8521    0.0000 </r>
       <r>   28.8521    0.0000 </r>
       <r>   30.1480    0.0000 </r>
       <r>   30.1480    0.0000 </r>
       <r>   30.6869    0.0000 </r>
       <r>   30.6869    0.0000 </r>
       <r>   31.3713    0.0000 </r>
       <r>   32.8183    0.0000 </r>
       <r>   35.5253    0.0000 </r>
       <r>   35.5253    0.0000 </r>
       <r>   35.9776    0.0000 </r>
       <r>   36.0232    0.0000 </r>
       <r>   36.0234    0.0000 </r>
       <r>   37.9570    0.0000 </r>
       <r>   38.4885    0.0000 </r>
       <r>   42.4942    0.0000 </r>
       <r>   42.5187    0.0000 </r>
       <r>   42.9497    0.0000 </r>
       <r>   43.0560    0.0000 </r>
       <r>   43.0613    0.0000 </r>
       <r>   44.8133    0.0000 </r>
       <r>   44.9545    0.0000 </r>
       <r>   44.9767    0.0000 </r>
       <r>   47.4062    0.0000 </r>
       <r>   50.3634    0.0000 </r>
       <r>   50.6774    0.0000 </r>
       <r>   52.1008    0.0000 </r>
       <r>   52.2263    0.0000 </r>
       <r>   54.6990    0.0000 </r>
       <r>   55.3685    0.0000 </r>
       <r>   56.2965    0.0000 </r>
       <r>   56.5241    0.0000 </r>
       <r>   59.6910    0.0000 </r>
       <r>   61.0069    0.0000 </r>
       <r>   62.3663    0.0000 </r>
       <r>   62.6792    0.0000 </r>
       <r>   69.4025    0.0000 </r>
      </set>
      <set comment="kpoint 14">
       <r>   -7.4936    1.0000 </r>
       <r>   -2.8870    1.0000 </r>
       <r>    2.2398    1.0000 </r>
       <r>    2.2398    1.0000 </r>
       <r>    4.1855   -0.0000 </r>
       <r>    7.4465    0.0000 </r>
       <r>    7.4465    0.0000 </r>
       <r>   10.9736    0.0000 </r>
       <r>   12.0212    0.0000 </r>
       <r>   13.1213    0.0000 </r>
       <r>   13.1213    0.0000 </r>
       <r>   16.4184    0.0000 </r>
       <r>   18.5101    0.0000 </r>
       <r>   18.5101    0.0000 </r>
       <r>   20.3447    0.0000 </r>
       <r>   21.7164    0.0000 </r>
       <r>   21.7164    0.0000 </r>
       <r>   25.1007    0.0000 </r>
       <r>   27.7862    0.0000 </r>
       <r>   29.0502    0.0000 </r>
       <r>   29.0502    0.0000 </r>
       <r>   30.1431    0.0000 </r>
       <r>   30.1431    0.0000 </r>
       <r>   30.7501    0.0000 </r>
       <r>   30.7501    0.0000 </r>
       <r>   31.3264    0.0000 </r>
       <r>   32.9661    0.0000 </r>
       <r>   35.6037    0.0000 </r>
       <r>   35.6037    0.0000 </r>
       <r>   36.0856    0.0000 </r>
       <r>   36.1275    0.0000 </r>
       <r>   36.1275    0.0000 </r>
       <r>   38.0733    0.0000 </r>
       <r>   38.6246    0.0000 </r>
       <r>   42.4907    0.0000 </r>
       <r>   42.4907    0.0000 </r>
       <r>   42.8252    0.0000 </r>
       <r>   42.8252    0.0000 </r>
       <r>   42.9477    0.0000 </r>
       <r>   44.7832    0.0000 </r>
       <r>   44.8550    0.0000 </r>
       <r>   44.8550    0.0000 </r>
       <r>   47.1576    0.0000 </r>
       <r>   50.2740    0.0000 </r>
       <r>   50.3368    0.0000 </r>
       <r>   51.8467    0.0000 </r>
       <r>   51.9491    0.0000 </r>
       <r>   53.8544    0.0000 </r>
       <r>   54.5945    0.0000 </r>
       <r>   54.6634    0.0000 </r>
       <r>   55.1695    0.0000 </r>
       <r>   56.5522    0.0000 </r>
       <r>   57.0458    0.0000 </r>
       <r>   59.5061    0.0000 </r>
       <r>   60.6313    0.0000 </r>
       <r>   62.8783    0.0000 </r>
      </set>
      <set comment="kpoint 15">
       <r>   -7.5631    1.0000 </r>
       <r>   -2.7472    1.0000 </r>
       <r>    2.2643    1.0000 </r>
       <r>    2.2643    1.0000 </r>
       <r>    4.2069   -0.0000 </r>
       <r>    7.4446    0.0000 </r>
       <r>    7.4446    0.0000 </r>
       <r>   10.9339    0.0000 </r>
       <r>   11.8950    0.0000 </r>
       <r>   12.9887    0.0000 </r>
       <r>   12.9887    0.0000 </r>
       <r>   16.3806    0.0000 </r>
       <r>   18.7480    0.0000 </r>
       <r>   18.7480    0.0000 </r>
       <r>   20.3422    0.0000 </r>
       <r>   21.4604    0.0000 </r>
       <r>   21.4604    0.0000 </r>
       <r>   24.8262    0.0000 </r>
       <r>   28.1178    0.0000 </r>
       <r>   29.2033    0.0000 </r>
       <r>   29.2034    0.0000 </r>
       <r>   30.1345    0.0000 </r>
       <r>   30.1345    0.0000 </r>
       <r>   30.8619    0.0000 </r>
       <r>   30.8619    0.0000 </r>
       <r>   31.2807    0.0000 </r>
       <r>   33.0761    0.0000 </r>
       <r>   35.6944    0.0000 </r>
       <r>   35.6947    0.0000 </r>
       <r>   36.2324    0.0000 </r>
       <r>   36.2355    0.0000 </r>
       <r>   36.4258    0.0000 </r>
       <r>   38.6546    0.0000 </r>
       <r>   38.7379    0.0000 </r>
       <r>   42.5534    0.0000 </r>
       <r>   42.5890    0.0000 </r>
       <r>   42.7189    0.0000 </r>
       <r>   43.0924    0.0000 </r>
       <r>   43.3123    0.0000 </r>
       <r>   44.7811    0.0000 </r>
       <r>   45.0209    0.0000 </r>
       <r>   46.3172    0.0000 </r>
       <r>   50.2103    0.0000 </r>
       <r>   50.8786    0.0000 </r>
       <r>   51.5388    0.0000 </r>
       <r>   53.1772    0.0000 </r>
       <r>   53.2393    0.0000 </r>
       <r>   54.9392    0.0000 </r>
       <r>   57.4298    0.0000 </r>
       <r>   57.8186    0.0000 </r>
       <r>   60.2000    0.0000 </r>
       <r>   60.9857    0.0000 </r>
       <r>   62.1407    0.0000 </r>
       <r>   63.7039    0.0000 </r>
       <r>   68.3155    0.0000 </r>
       <r>   70.7771    0.0000 </r>
      </set>
      <set comment="kpoint 16">
       <r>   -7.6328    1.0000 </r>
       <r>   -2.6021    1.0000 </r>
       <r>    2.2906    1.0000 </r>
       <r>    2.2906    1.0000 </r>
       <r>    4.2298   -0.0000 </r>
       <r>    7.4411    0.0000 </r>
       <r>    7.4411    0.0000 </r>
       <r>   10.8665    0.0000 </r>
       <r>   11.7999    0.0000 </r>
       <r>   12.8630    0.0000 </r>
       <r>   12.8630    0.0000 </r>
       <r>   16.3059    0.0000 </r>
       <r>   18.9841    0.0000 </r>
       <r>   18.9841    0.0000 </r>
       <r>   20.3815    0.0000 </r>
       <r>   21.2123    0.0000 </r>
       <r>   21.2123    0.0000 </r>
       <r>   24.5492    0.0000 </r>
       <r>   28.4568    0.0000 </r>
       <r>   29.3090    0.0000 </r>
       <r>   29.3102    0.0000 </r>
       <r>   30.1190    0.0000 </r>
       <r>   30.1212    0.0000 </r>
       <r>   31.0281    0.0000 </r>
       <r>   31.0303    0.0000 </r>
       <r>   31.2311    0.0000 </r>
       <r>   33.1497    0.0000 </r>
       <r>   35.7859    0.0000 </r>
       <r>   35.8125    0.0000 </r>
       <r>   36.3474    0.0000 </r>
       <r>   36.4168    0.0000 </r>
       <r>   36.5593    0.0000 </r>
       <r>   38.7721    0.0000 </r>
       <r>   39.0623    0.0000 </r>
       <r>   42.3131    0.0000 </r>
       <r>   42.4119    0.0000 </r>
       <r>   42.6865    0.0000 </r>
       <r>   43.2726    0.0000 </r>
       <r>   44.1817    0.0000 </r>
       <r>   44.5802    0.0000 </r>
       <r>   44.9040    0.0000 </r>
       <r>   46.2842    0.0000 </r>
       <r>   50.1283    0.0000 </r>
       <r>   50.8278    0.0000 </r>
       <r>   52.0446    0.0000 </r>
       <r>   52.6934    0.0000 </r>
       <r>   53.3715    0.0000 </r>
       <r>   56.1595    0.0000 </r>
       <r>   58.3676    0.0000 </r>
       <r>   60.1481    0.0000 </r>
       <r>   62.0928    0.0000 </r>
       <r>   64.1225    0.0000 </r>
       <r>   64.6796    0.0000 </r>
       <r>   67.2445    0.0000 </r>
       <r>   76.5914    0.0000 </r>
       <r>   78.6205    0.0000 </r>
      </set>
      <set comment="kpoint 17">
       <r>   -7.7023    1.0000 </r>
       <r>   -2.4522    1.0000 </r>
       <r>    2.3185    1.0000 </r>
       <r>    2.3185    1.0000 </r>
       <r>    4.2540   -0.0000 </r>
       <r>    7.4355    0.0000 </r>
       <r>    7.4355    0.0000 </r>
       <r>   10.7685    0.0000 </r>
       <r>   11.7385    0.0000 </r>
       <r>   12.7445    0.0000 </r>
       <r>   12.7445    0.0000 </r>
       <r>   16.1983    0.0000 </r>
       <r>   19.2140    0.0000 </r>
       <r>   19.2140    0.0000 </r>
       <r>   20.4589    0.0000 </r>
       <r>   20.9765    0.0000 </r>
       <r>   20.9765    0.0000 </r>
       <r>   24.2726    0.0000 </r>
       <r>   28.8007    0.0000 </r>
       <r>   29.3735    0.0000 </r>
       <r>   29.3752    0.0000 </r>
       <r>   30.0960    0.0000 </r>
       <r>   30.0980    0.0000 </r>
       <r>   31.1959    0.0000 </r>
       <r>   31.2328    0.0000 </r>
       <r>   31.2434    0.0000 </r>
       <r>   33.1890    0.0000 </r>
       <r>   35.8821    0.0000 </r>
       <r>   35.9091    0.0000 </r>
       <r>   36.4604    0.0000 </r>
       <r>   36.6317    0.0000 </r>
       <r>   36.6888    0.0000 </r>
       <r>   38.9259    0.0000 </r>
       <r>   39.3130    0.0000 </r>
       <r>   41.9790    0.0000 </r>
       <r>   42.1664    0.0000 </r>
       <r>   42.6709    0.0000 </r>
       <r>   43.2527    0.0000 </r>
       <r>   44.6477    0.0000 </r>
       <r>   44.7119    0.0000 </r>
       <r>   44.9315    0.0000 </r>
       <r>   45.6866    0.0000 </r>
       <r>   50.0624    0.0000 </r>
       <r>   50.6782    0.0000 </r>
       <r>   51.8607    0.0000 </r>
       <r>   52.7124    0.0000 </r>
       <r>   53.0531    0.0000 </r>
       <r>   56.1735    0.0000 </r>
       <r>   58.2318    0.0000 </r>
       <r>   59.8407    0.0000 </r>
       <r>   61.8482    0.0000 </r>
       <r>   64.2409    0.0000 </r>
       <r>   64.8671    0.0000 </r>
       <r>   67.2104    0.0000 </r>
       <r>   76.4920    0.0000 </r>
       <r>   78.7019    0.0000 </r>
      </set>
      <set comment="kpoint 18">
       <r>   -7.7712    1.0000 </r>
       <r>   -2.2978    1.0000 </r>
       <r>    2.3481    1.0000 </r>
       <r>    2.3481    1.0000 </r>
       <r>    4.2797   -0.0000 </r>
       <r>    7.4276    0.0000 </r>
       <r>    7.4276    0.0000 </r>
       <r>   10.6428    0.0000 </r>
       <r>   11.7075    0.0000 </r>
       <r>   12.6338    0.0000 </r>
       <r>   12.6338    0.0000 </r>
       <r>   16.0631    0.0000 </r>
       <r>   19.4276    0.0000 </r>
       <r>   19.4276    0.0000 </r>
       <r>   20.5691    0.0000 </r>
       <r>   20.7629    0.0000 </r>
       <r>   20.7629    0.0000 </r>
       <r>   23.9981    0.0000 </r>
       <r>   29.1480    0.0000 </r>
       <r>   29.4069    0.0000 </r>
       <r>   29.4090    0.0000 </r>
       <r>   30.0664    0.0000 </r>
       <r>   30.0684    0.0000 </r>
       <r>   31.1378    0.0000 </r>
       <r>   31.4962    0.0000 </r>
       <r>   31.4974    0.0000 </r>
       <r>   33.1989    0.0000 </r>
       <r>   35.9830    0.0000 </r>
       <r>   36.0102    0.0000 </r>
       <r>   36.5744    0.0000 </r>
       <r>   36.8427    0.0000 </r>
       <r>   36.8447    0.0000 </r>
       <r>   39.0800    0.0000 </r>
       <r>   39.5037    0.0000 </r>
       <r>   41.6344    0.0000 </r>
       <r>   41.8839    0.0000 </r>
       <r>   42.6784    0.0000 </r>
       <r>   43.2990    0.0000 </r>
       <r>   44.6697    0.0000 </r>
       <r>   44.7510    0.0000 </r>
       <r>   45.1729    0.0000 </r>
       <r>   45.5037    0.0000 </r>
       <r>   49.9769    0.0000 </r>
       <r>   50.4537    0.0000 </r>
       <r>   51.5225    0.0000 </r>
       <r>   52.5692    0.0000 </r>
       <r>   52.9333    0.0000 </r>
       <r>   56.0764    0.0000 </r>
       <r>   58.1746    0.0000 </r>
       <r>   59.6296    0.0000 </r>
       <r>   61.5397    0.0000 </r>
       <r>   64.3463    0.0000 </r>
       <r>   65.0424    0.0000 </r>
       <r>   67.1620    0.0000 </r>
       <r>   76.3403    0.0000 </r>
       <r>   78.8162    0.0000 </r>
      </set>
      <set comment="kpoint 19">
       <r>   -7.8395    1.0000 </r>
       <r>   -2.1392    1.0000 </r>
       <r>    2.3794    1.0000 </r>
       <r>    2.3794    1.0000 </r>
       <r>    4.3067   -0.0000 </r>
       <r>    7.4171    0.0000 </r>
       <r>    7.4171    0.0000 </r>
       <r>   10.4961    0.0000 </r>
       <r>   11.7000    0.0000 </r>
       <r>   12.5313    0.0000 </r>
       <r>   12.5313    0.0000 </r>
       <r>   15.9062    0.0000 </r>
       <r>   19.5995    0.0000 </r>
       <r>   19.5995    0.0000 </r>
       <r>   20.5968    0.0000 </r>
       <r>   20.5968    0.0000 </r>
       <r>   20.7062    0.0000 </r>
       <r>   23.7270    0.0000 </r>
       <r>   29.4187    0.0000 </r>
       <r>   29.4212    0.0000 </r>
       <r>   29.4977    0.0000 </r>
       <r>   30.0319    0.0000 </r>
       <r>   30.0337    0.0000 </r>
       <r>   31.0874    0.0000 </r>
       <r>   31.7792    0.0000 </r>
       <r>   31.7792    0.0000 </r>
       <r>   33.1845    0.0000 </r>
       <r>   36.0880    0.0000 </r>
       <r>   36.1158    0.0000 </r>
       <r>   36.6877    0.0000 </r>
       <r>   36.9328    0.0000 </r>
       <r>   37.1411    0.0000 </r>
       <r>   39.2383    0.0000 </r>
       <r>   39.6669    0.0000 </r>
       <r>   41.2867    0.0000 </r>
       <r>   41.5808    0.0000 </r>
       <r>   42.6818    0.0000 </r>
       <r>   43.3590    0.0000 </r>
       <r>   44.6918    0.0000 </r>
       <r>   44.8459    0.0000 </r>
       <r>   45.0727    0.0000 </r>
       <r>   45.5081    0.0000 </r>
       <r>   49.8611    0.0000 </r>
       <r>   50.2851    0.0000 </r>
       <r>   51.3252    0.0000 </r>
       <r>   52.4574    0.0000 </r>
       <r>   52.8964    0.0000 </r>
       <r>   55.8714    0.0000 </r>
       <r>   58.1392    0.0000 </r>
       <r>   59.3311    0.0000 </r>
       <r>   61.2531    0.0000 </r>
       <r>   64.4876    0.0000 </r>
       <r>   65.3055    0.0000 </r>
       <r>   67.2242    0.0000 </r>
       <r>   76.2639    0.0000 </r>
       <r>   78.9453    0.0000 </r>
      </set>
      <set comment="kpoint 20">
       <r>   -7.9067    1.0000 </r>
       <r>   -1.9766    1.0000 </r>
       <r>    2.4122    1.0000 </r>
       <r>    2.4122    1.0000 </r>
       <r>    4.3350   -0.0000 </r>
       <r>    7.4036    0.0000 </r>
       <r>    7.4036    0.0000 </r>
       <r>   10.3352    0.0000 </r>
       <r>   11.7088    0.0000 </r>
       <r>   12.4374    0.0000 </r>
       <r>   12.4374    0.0000 </r>
       <r>   15.7331    0.0000 </r>
       <r>   19.6734    0.0000 </r>
       <r>   19.6734    0.0000 </r>
       <r>   20.5347    0.0000 </r>
       <r>   20.5347    0.0000 </r>
       <r>   20.8644    0.0000 </r>
       <r>   23.4609    0.0000 </r>
       <r>   29.4161    0.0000 </r>
       <r>   29.4187    0.0000 </r>
       <r>   29.8493    0.0000 </r>
       <r>   29.9940    0.0000 </r>
       <r>   29.9955    0.0000 </r>
       <r>   31.0375    0.0000 </r>
       <r>   32.0803    0.0000 </r>
       <r>   32.0809    0.0000 </r>
       <r>   33.1501    0.0000 </r>
       <r>   36.1972    0.0000 </r>
       <r>   36.2240    0.0000 </r>
       <r>   36.7987    0.0000 </r>
       <r>   37.0257    0.0000 </r>
       <r>   37.4347    0.0000 </r>
       <r>   39.3921    0.0000 </r>
       <r>   39.8025    0.0000 </r>
       <r>   40.9442    0.0000 </r>
       <r>   41.2707    0.0000 </r>
       <r>   42.6835    0.0000 </r>
       <r>   43.3809    0.0000 </r>
       <r>   44.5813    0.0000 </r>
       <r>   44.7001    0.0000 </r>
       <r>   44.9706    0.0000 </r>
       <r>   45.2914    0.0000 </r>
       <r>   49.6779    0.0000 </r>
       <r>   50.1226    0.0000 </r>
       <r>   51.0476    0.0000 </r>
       <r>   52.2280    0.0000 </r>
       <r>   52.4743    0.0000 </r>
       <r>   55.5702    0.0000 </r>
       <r>   58.1628    0.0000 </r>
       <r>   58.9272    0.0000 </r>
       <r>   61.0433    0.0000 </r>
       <r>   64.6523    0.0000 </r>
       <r>   65.3257    0.0000 </r>
       <r>   67.3065    0.0000 </r>
       <r>   76.1929    0.0000 </r>
       <r>   79.3684    0.0000 </r>
      </set>
      <set comment="kpoint 21">
       <r>   -7.9727    1.0000 </r>
       <r>   -1.8104    1.0000 </r>
       <r>    2.4466    1.0000 </r>
       <r>    2.4466    1.0000 </r>
       <r>    4.3645   -0.0000 </r>
       <r>    7.3868    0.0000 </r>
       <r>    7.3868    0.0000 </r>
       <r>   10.1650    0.0000 </r>
       <r>   11.7283    0.0000 </r>
       <r>   12.3524    0.0000 </r>
       <r>   12.3524    0.0000 </r>
       <r>   15.5488    0.0000 </r>
       <r>   19.6068    0.0000 </r>
       <r>   19.6068    0.0000 </r>
       <r>   20.6188    0.0000 </r>
       <r>   20.6188    0.0000 </r>
       <r>   21.0375    0.0000 </r>
       <r>   23.2018    0.0000 </r>
       <r>   29.4039    0.0000 </r>
       <r>   29.4065    0.0000 </r>
       <r>   29.9537    0.0000 </r>
       <r>   29.9550    0.0000 </r>
       <r>   30.2021    0.0000 </r>
       <r>   30.9879    0.0000 </r>
       <r>   32.3950    0.0000 </r>
       <r>   32.3960    0.0000 </r>
       <r>   33.0995    0.0000 </r>
       <r>   36.3098    0.0000 </r>
       <r>   36.3387    0.0000 </r>
       <r>   36.9044    0.0000 </r>
       <r>   37.1256    0.0000 </r>
       <r>   37.7321    0.0000 </r>
       <r>   39.5536    0.0000 </r>
       <r>   39.8650    0.0000 </r>
       <r>   40.6077    0.0000 </r>
       <r>   41.0190    0.0000 </r>
       <r>   42.6902    0.0000 </r>
       <r>   43.4283    0.0000 </r>
       <r>   44.5024    0.0000 </r>
       <r>   44.7159    0.0000 </r>
       <r>   45.0724    0.0000 </r>
       <r>   45.1402    0.0000 </r>
       <r>   49.4232    0.0000 </r>
       <r>   50.0489    0.0000 </r>
       <r>   50.6681    0.0000 </r>
       <r>   52.0494    0.0000 </r>
       <r>   52.2951    0.0000 </r>
       <r>   55.3165    0.0000 </r>
       <r>   58.0922    0.0000 </r>
       <r>   58.7145    0.0000 </r>
       <r>   60.9019    0.0000 </r>
       <r>   64.8603    0.0000 </r>
       <r>   65.4318    0.0000 </r>
       <r>   67.5343    0.0000 </r>
       <r>   76.2122    0.0000 </r>
       <r>   79.5072    0.0000 </r>
      </set>
      <set comment="kpoint 22">
       <r>   -8.0374    1.0000 </r>
       <r>   -1.6406    1.0000 </r>
       <r>    2.4824    1.0000 </r>
       <r>    2.4824    1.0000 </r>
       <r>    4.3951   -0.0000 </r>
       <r>    7.3666    0.0000 </r>
       <r>    7.3666    0.0000 </r>
       <r>    9.9890    0.0000 </r>
       <r>   11.7544    0.0000 </r>
       <r>   12.2767    0.0000 </r>
       <r>   12.2767    0.0000 </r>
       <r>   15.3578    0.0000 </r>
       <r>   19.4461    0.0000 </r>
       <r>   19.4461    0.0000 </r>
       <r>   20.8028    0.0000 </r>
       <r>   20.8028    0.0000 </r>
       <r>   21.2186    0.0000 </r>
       <r>   22.9536    0.0000 </r>
       <r>   29.3852    0.0000 </r>
       <r>   29.3880    0.0000 </r>
       <r>   29.9120    0.0000 </r>
       <r>   29.9133    0.0000 </r>
       <r>   30.5558    0.0000 </r>
       <r>   30.9388    0.0000 </r>
       <r>   32.7194    0.0000 </r>
       <r>   32.7211    0.0000 </r>
       <r>   33.0359    0.0000 </r>
       <r>   36.4263    0.0000 </r>
       <r>   36.4550    0.0000 </r>
       <r>   37.0011    0.0000 </r>
       <r>   37.2144    0.0000 </r>
       <r>   38.0379    0.0000 </r>
       <r>   39.7249    0.0000 </r>
       <r>   39.9028    0.0000 </r>
       <r>   40.2678    0.0000 </r>
       <r>   40.8813    0.0000 </r>
       <r>   42.7053    0.0000 </r>
       <r>   43.5225    0.0000 </r>
       <r>   44.5526    0.0000 </r>
       <r>   44.7495    0.0000 </r>
       <r>   45.0243    0.0000 </r>
       <r>   45.4759    0.0000 </r>
       <r>   49.3091    0.0000 </r>
       <r>   49.9163    0.0000 </r>
       <r>   50.4281    0.0000 </r>
       <r>   51.9104    0.0000 </r>
       <r>   52.1274    0.0000 </r>
       <r>   55.0782    0.0000 </r>
       <r>   57.8850    0.0000 </r>
       <r>   58.7713    0.0000 </r>
       <r>   60.5784    0.0000 </r>
       <r>   64.9655    0.0000 </r>
       <r>   65.2842    0.0000 </r>
       <r>   67.7308    0.0000 </r>
       <r>   76.1101    0.0000 </r>
       <r>   79.8939    0.0000 </r>
      </set>
      <set comment="kpoint 23">
       <r>   -8.1005    1.0000 </r>
       <r>   -1.4676    1.0000 </r>
       <r>    2.5197    1.0000 </r>
       <r>    2.5197    1.0000 </r>
       <r>    4.4267   -0.0000 </r>
       <r>    7.3427    0.0000 </r>
       <r>    7.3427    0.0000 </r>
       <r>    9.8093    0.0000 </r>
       <r>   11.7841    0.0000 </r>
       <r>   12.2105    0.0000 </r>
       <r>   12.2105    0.0000 </r>
       <r>   15.1640    0.0000 </r>
       <r>   19.2460    0.0000 </r>
       <r>   19.2460    0.0000 </r>
       <r>   21.0319    0.0000 </r>
       <r>   21.0319    0.0000 </r>
       <r>   21.3968    0.0000 </r>
       <r>   22.7242    0.0000 </r>
       <r>   29.3622    0.0000 </r>
       <r>   29.3648    0.0000 </r>
       <r>   29.8693    0.0000 </r>
       <r>   29.8705    0.0000 </r>
       <r>   30.8925    0.0000 </r>
       <r>   30.9076    0.0000 </r>
       <r>   32.9687    0.0000 </r>
       <r>   33.0462    0.0000 </r>
       <r>   33.0494    0.0000 </r>
       <r>   36.5451    0.0000 </r>
       <r>   36.5726    0.0000 </r>
       <r>   37.0831    0.0000 </r>
       <r>   37.2791    0.0000 </r>
       <r>   38.3464    0.0000 </r>
       <r>   39.8561    0.0000 </r>
       <r>   39.9076    0.0000 </r>
       <r>   39.9260    0.0000 </r>
       <r>   40.8602    0.0000 </r>
       <r>   42.7208    0.0000 </r>
       <r>   43.6144    0.0000 </r>
       <r>   44.6789    0.0000 </r>
       <r>   44.7880    0.0000 </r>
       <r>   44.8791    0.0000 </r>
       <r>   45.8904    0.0000 </r>
       <r>   49.1405    0.0000 </r>
       <r>   49.9241    0.0000 </r>
       <r>   50.2602    0.0000 </r>
       <r>   51.6925    0.0000 </r>
       <r>   52.0924    0.0000 </r>
       <r>   54.8381    0.0000 </r>
       <r>   57.5477    0.0000 </r>
       <r>   58.8984    0.0000 </r>
       <r>   60.2510    0.0000 </r>
       <r>   65.0519    0.0000 </r>
       <r>   65.2886    0.0000 </r>
       <r>   67.9600    0.0000 </r>
       <r>   76.0509    0.0000 </r>
       <r>   80.0000    0.0000 </r>
      </set>
      <set comment="kpoint 24">
[...]
       <r>    4.5614   -0.0000 </r>
       <r>   13.0910    0.0000 </r>
       <r>   13.0910    0.0000 </r>
       <r>   15.1816    0.0000 </r>
       <r>   15.5074    0.0000 </r>
       <r>   16.4311    0.0000 </r>
       <r>   16.4311    0.0000 </r>
       <r>   17.1678    0.0000 </r>
       <r>   17.5082    0.0000 </r>
       <r>   22.5403    0.0000 </r>
       <r>   22.5403    0.0000 </r>
       <r>   22.5583    0.0000 </r>
       <r>   23.1062    0.0000 </r>
       <r>   23.1787    0.0000 </r>
       <r>   23.1869    0.0000 </r>
       <r>   23.3033    0.0000 </r>
       <r>   23.8497    0.0000 </r>
       <r>   30.6784    0.0000 </r>
       <r>   30.9782    0.0000 </r>
       <r>   32.1514    0.0000 </r>
       <r>   32.2020    0.0000 </r>
       <r>   35.9034    0.0000 </r>
       <r>   35.9799    0.0000 </r>
       <r>   35.9943    0.0000 </r>
       <r>   37.6678    0.0000 </r>
       <r>   38.8475    0.0000 </r>
       <r>   38.9622    0.0000 </r>
       <r>   39.1290    0.0000 </r>
       <r>   40.2647    0.0000 </r>
       <r>   41.1460    0.0000 </r>
       <r>   41.9561    0.0000 </r>
       <r>   42.6261    0.0000 </r>
       <r>   45.0116    0.0000 </r>
       <r>   45.7145    0.0000 </r>
       <r>   48.5772    0.0000 </r>
       <r>   49.2377    0.0000 </r>
       <r>   51.4151    0.0000 </r>
       <r>   51.9553    0.0000 </r>
       <r>   54.3395    0.0000 </r>
       <r>   55.1132    0.0000 </r>
       <r>   55.5818    0.0000 </r>
       <r>   57.4591    0.0000 </r>
       <r>   57.9268    0.0000 </r>
       <r>   59.4596    0.0000 </r>
       <r>   62.1457    0.0000 </r>
       <r>   65.9024    0.0000 </r>
       <r>   67.4014    0.0000 </r>
       <r>   69.1832    0.0000 </r>
       <r>   74.6493    0.0000 </r>
       <r>   74.6970    0.0000 </r>
       <r>   76.3581    0.0000 </r>
      </set>
      <set comment="kpoint 100">
       <r>   -5.1219    1.0000 </r>
       <r>   -5.1219    1.0000 </r>
       <r>    0.4129    1.0000 </r>
       <r>    0.4129    1.0000 </r>
       <r>    4.5176   -0.0000 </r>
       <r>    4.5176   -0.0000 </r>
       <r>   13.1055    0.0000 </r>
       <r>   13.1055    0.0000 </r>
       <r>   15.3484    0.0000 </r>
       <r>   15.3484    0.0000 </r>
       <r>   16.4148    0.0000 </r>
       <r>   16.4148    0.0000 </r>
       <r>   17.3362    0.0000 </r>
       <r>   17.3362    0.0000 </r>
       <r>   22.8463    0.0000 </r>
       <r>   22.8501    0.0000 </r>
       <r>   22.8555    0.0000 </r>
       <r>   22.8555    0.0000 </r>
       <r>   22.8556    0.0000 </r>
       <r>   22.8581    0.0000 </r>
       <r>   23.5573    0.0000 </r>
       <r>   23.5575    0.0000 </r>
       <r>   30.8101    0.0000 </r>
       <r>   30.8496    0.0000 </r>
       <r>   32.1603    0.0000 </r>
       <r>   32.2200    0.0000 </r>
       <r>   35.8402    0.0000 </r>
       <r>   35.9242    0.0000 </r>
       <r>   36.4430    0.0000 </r>
       <r>   37.7443    0.0000 </r>
       <r>   38.8128    0.0000 </r>
       <r>   38.9415    0.0000 </r>
       <r>   39.1331    0.0000 </r>
       <r>   40.2749    0.0000 </r>
       <r>   40.9080    0.0000 </r>
       <r>   41.8524    0.0000 </r>
       <r>   42.6162    0.0000 </r>
       <r>   44.9370    0.0000 </r>
       <r>   45.8143    0.0000 </r>
       <r>   48.7496    0.0000 </r>
       <r>   48.8057    0.0000 </r>
       <r>   51.3354    0.0000 </r>
       <r>   52.1716    0.0000 </r>
       <r>   54.4946    0.0000 </r>
       <r>   55.0903    0.0000 </r>
       <r>   55.8654    0.0000 </r>
       <r>   57.6254    0.0000 </r>
       <r>   58.4542    0.0000 </r>
       <r>   59.8465    0.0000 </r>
       <r>   62.0125    0.0000 </r>
       <r>   66.0433    0.0000 </r>
       <r>   67.0537    0.0000 </r>
       <r>   69.6742    0.0000 </r>
       <r>   73.1318    0.0000 </r>
       <r>   75.1315    0.0000 </r>
       <r>   77.2255    0.0000 </r>
      </set>
     </set>
    </set>
   </array>
  </eigenvalues>
  <separator name="orbital magnetization" >
   <v name="MAGDIPOLOUT">      0.00000000      0.00000000      0.00000000</v>
  </separator>
  <dos>
   <i name="efermi">      3.54608459 </i>
   <total>
    <array>
     <dimension dim="1">gridpoints</dimension>
     <dimension dim="2">spin</dimension>
     <field>energy</field>
     <field>total</field>
     <field>integrated</field>
     <set>
      <set comment="spin 1">
       <r>   -13.6411     0.0000     0.0000 </r>
       <r>   -13.2998     0.0000     0.0000 </r>
       <r>   -12.9586     0.0000     0.0000 </r>
       <r>   -12.6173     0.0000     0.0000 </r>
       <r>   -12.2761     0.0000     0.0000 </r>
       <r>   -11.9348     0.0000     0.0000 </r>
       <r>   -11.5936     0.0000     0.0000 </r>
       <r>   -11.2523     0.0000     0.0000 </r>
       <r>   -10.9111     0.0000     0.0000 </r>
       <r>   -10.5698     0.0000     0.0000 </r>
       <r>   -10.2286     0.0000     0.0000 </r>
       <r>    -9.8873     0.0000     0.0000 </r>
       <r>    -9.5461    -0.0000    -0.0000 </r>
       <r>    -9.2048    -0.0000    -0.0000 </r>
       <r>    -8.8636     1.1454     0.3909 </r>
       <r>    -8.5223     1.0325     0.7400 </r>
       <r>    -8.1811     0.6857     0.9728 </r>
       <r>    -7.8399     0.5680     1.1658 </r>
       <r>    -7.4986     0.5036     1.3369 </r>
       <r>    -7.1574     0.5120     1.5106 </r>
       <r>    -6.8161     0.6740     1.7399 </r>
       <r>    -6.4749     0.1656     1.7954 </r>
       <r>    -6.1336     0.1382     1.8425 </r>
       <r>    -5.7924     0.1689     1.9000 </r>
       <r>    -5.4511     0.1195     1.9408 </r>
       <r>    -5.1099     0.1968     2.0079 </r>
       <r>    -4.7686     0.1538     2.0604 </r>
       <r>    -4.4274     0.1159     2.0999 </r>
       <r>    -4.0861     0.1170     2.1394 </r>
       <r>    -3.7449     0.4434     2.2906 </r>
       <r>    -3.4036     0.3346     2.4040 </r>
       <r>    -3.0624     0.2828     2.5001 </r>
       <r>    -2.7211     0.2849     2.5970 </r>
       <r>    -2.3799     0.2421     2.6796 </r>
       <r>    -2.0387     0.2355     2.7593 </r>
       <r>    -1.6974     0.2371     2.8398 </r>
       <r>    -1.3562     0.2365     2.9199 </r>
       <r>    -1.0149     0.2260     2.9970 </r>
       <r>    -0.6737     0.2093     3.0682 </r>
       <r>    -0.3324     0.2113     3.1397 </r>
       <r>     0.0088     0.1999     3.2080 </r>
       <r>     0.3501     0.1940     3.2741 </r>
       <r>     0.6913     1.7710     3.8779 </r>
       <r>     1.0326     0.9288     4.1927 </r>
       <r>     1.3738     0.7171     4.4372 </r>
       <r>     1.7151     0.7047     4.6775 </r>
       <r>     2.0563     0.6796     4.9090 </r>
       <r>     2.3976     2.7850     5.8591 </r>
       <r>     2.7388     1.5827     6.3980 </r>
       <r>     3.0801     1.5274     6.9177 </r>
       <r>     3.4213     1.7568     7.5158 </r>
       <r>     3.7626     1.4244     8.0000 </r>
       <r>     4.1038     0.6197     8.2115 </r>
       <r>     4.4450     2.1137     8.9328 </r>
       <r>     4.7863     1.8721     9.5685 </r>
       <r>     5.1275     1.1804     9.9696 </r>
       <r>     5.4688     0.6147    10.1786 </r>
       <r>     5.8100     0.6062    10.3853 </r>
       <r>     6.1513     0.9043    10.6932 </r>
       <r>     6.4925     2.8278    11.6574 </r>
       <r>     6.8338     1.6706    12.2244 </r>
       <r>     7.1750     1.1970    12.6318 </r>
       <r>     7.5163     3.6502    13.8772 </r>
       <r>     7.8575     0.3569    13.9817 </r>
       <r>     8.1988     0.3481    14.1005 </r>
       <r>     8.5400     0.3424    14.2160 </r>
       <r>     8.8813     0.3311    14.3276 </r>
       <r>     9.2225     0.3278    14.4394 </r>
       <r>     9.5638     0.3266    14.5509 </r>
       <r>     9.9050     0.3133    14.6578 </r>
       <r>    10.2462     0.3111    14.7637 </r>
       <r>    10.5875     1.1928    15.1703 </r>
       <r>    10.9287     1.5252    15.6901 </r>
       <r>    11.2700     1.4958    16.1987 </r>
       <r>    11.6112     0.7940    16.4688 </r>
       <r>    11.9525     1.6906    17.0444 </r>
       <r>    12.2937     2.4471    17.8765 </r>
       <r>    12.6350     1.6963    18.4523 </r>
       <r>    12.9762     1.6191    19.0035 </r>
       <r>    13.3175     2.3473    19.8021 </r>
       <r>    13.6587     0.9475    20.1244 </r>
       <r>    14.0000     1.3228    20.5752 </r>
       <r>    14.3412     1.3735    21.0429 </r>
       <r>    14.6825     2.3334    21.8367 </r>
       <r>    15.0237     2.2579    22.6009 </r>
       <r>    15.3650     1.5069    23.1112 </r>
       <r>    15.7062     1.3926    23.5842 </r>
       <r>    16.0475     1.4887    24.0918 </r>
       <r>    16.3887     2.0980    24.8073 </r>
       <r>    16.7299     1.7222    25.3935 </r>
       <r>    17.0712     1.0737    25.7570 </r>
       <r>    17.4124     1.1883    26.1616 </r>
       <r>    17.7537     1.1288    26.5425 </r>
       <r>    18.0949     1.5142    27.0581 </r>
       <r>    18.4362     1.2427    27.4813 </r>
       <r>    18.7774     1.0017    27.8209 </r>
       <r>    19.1187     1.0900    28.1927 </r>
       <r>    19.4599     1.0997    28.5672 </r>
       <r>    19.8012     1.0607    28.9291 </r>
       <r>    20.1424     0.6537    29.1518 </r>
       <r>    20.4837     0.9350    29.4700 </r>
       <r>    20.8249     1.5385    29.9940 </r>
       <r>    21.1662     1.0073    30.3333 </r>
       <r>    21.5074     1.1867    30.7369 </r>
       <r>    21.8487     1.4833    31.2414 </r>
       <r>    22.1899     1.0718    31.6068 </r>
       <r>    22.5311     1.3672    32.0724 </r>
       <r>    22.8724     1.3492    32.5325 </r>
       <r>    23.2136     1.1127    32.9107 </r>
       <r>    23.5549     1.0981    33.2854 </r>
       <r>    23.8961     1.1274    33.6687 </r>
       <r>    24.2374     1.1417    34.0558 </r>
       <r>    24.5786     1.1168    34.4347 </r>
       <r>    24.9199     1.0648    34.7962 </r>
       <r>    25.2611     0.9655    35.1222 </r>
       <r>    25.6024     1.1902    35.5270 </r>
       <r>    25.9436     1.1275    35.9110 </r>
       <r>    26.2849     0.9010    36.2173 </r>
       <r>    26.6261     0.9533    36.5413 </r>
       <r>    26.9674     0.9758    36.8733 </r>
       <r>    27.3086     1.0739    37.2379 </r>
       <r>    27.6499     1.1035    37.6126 </r>
       <r>    27.9911     1.1456    38.0029 </r>
       <r>    28.3324     1.7935    38.6147 </r>
       <r>    28.6736     1.2069    39.0227 </r>
       <r>    29.0148     3.2416    40.1280 </r>
       <r>    29.3561     4.3635    41.6144 </r>
       <r>    29.6973     4.0284    42.9803 </r>
       <r>    30.0386     2.5730    43.8547 </r>
       <r>    30.3798     5.2026    45.6273 </r>
       <r>    30.7211     3.1870    46.7117 </r>
       <r>    31.0623     3.1376    47.7753 </r>
       <r>    31.4036     2.5288    48.6347 </r>
       <r>    31.7448     2.3094    49.4195 </r>
       <r>    32.0861     1.7066    49.9980 </r>
       <r>    32.4273     1.6765    50.5695 </r>
       <r>    32.7686     1.1694    50.9679 </r>
       <r>    33.1098     1.4274    51.4538 </r>
       <r>    33.4511     1.1420    51.8407 </r>
       <r>    33.7923     0.7462    52.0933 </r>
       <r>    34.1336     0.7637    52.3520 </r>
       <r>    34.4748     0.7266    52.5983 </r>
       <r>    34.8160     0.7432    52.8511 </r>
       <r>    35.1573     1.3289    53.3038 </r>
       <r>    35.4985     2.4110    54.1242 </r>
       <r>    35.8398     1.5710    54.6593 </r>
       <r>    36.1810     2.6831    55.5746 </r>
       <r>    36.5223     1.5393    56.0967 </r>
       <r>    36.8635     2.8636    57.0714 </r>
       <r>    37.2048     2.1573    57.8054 </r>
       <r>    37.5460     2.7639    58.7448 </r>
       <r>    37.8873     1.9729    59.4157 </r>
       <r>    38.2285     1.7481    60.0113 </r>
       <r>    38.5698     1.8193    60.6314 </r>
       <r>    38.9110     2.1083    61.3472 </r>
       <r>    39.2523     4.3591    62.8329 </r>
       <r>    39.5935     2.6066    63.7187 </r>
       <r>    39.9348     2.4461    64.5505 </r>
       <r>    40.2760     1.8425    65.1776 </r>
       <r>    40.6173     1.7810    65.7821 </r>
       <r>    40.9585     2.2001    66.5299 </r>
       <r>    41.2997     2.2378    67.2898 </r>
       <r>    41.6410     2.3192    68.0777 </r>
       <r>    41.9822     3.4269    69.2458 </r>
       <r>    42.3235     2.4664    70.0852 </r>
       <r>    42.6647     3.5714    71.3018 </r>
       <r>    43.0060     3.3485    72.4397 </r>
       <r>    43.3472     2.3491    73.2397 </r>
       <r>    43.6885     3.9696    74.5915 </r>
       <r>    44.0297     2.8201    75.5510 </r>
       <r>    44.3710     3.1338    76.6184 </r>
       <r>    44.7122     3.6728    77.8682 </r>
       <r>    45.0535     4.3165    79.3330 </r>
       <r>    45.3947     2.3615    80.1361 </r>
       <r>    45.7360     2.8056    81.0907 </r>
       <r>    46.0772     1.8968    81.7360 </r>
       <r>    46.4185     1.9122    82.3879 </r>
       <r>    46.7597     1.1817    82.7898 </r>
       <r>    47.1009     1.4037    83.2684 </r>
       <r>    47.4422     1.9602    83.9362 </r>
       <r>    47.7834     1.9041    84.5830 </r>
       <r>    48.1247     2.1464    85.3135 </r>
       <r>    48.4659     1.6660    85.8779 </r>
       <r>    48.8072     1.9692    86.5490 </r>
       <r>    49.1484     1.4481    87.0415 </r>
       <r>    49.4897     1.5559    87.5703 </r>
       <r>    49.8309     2.2137    88.3227 </r>
       <r>    50.1722     1.7306    88.9118 </r>
       <r>    50.5134     2.3345    89.7079 </r>
       <r>    50.8547     1.5080    90.2179 </r>
       <r>    51.1959     2.3709    91.0266 </r>
       <r>    51.5372     1.1969    91.4325 </r>
       <r>    51.8784     1.3818    91.9033 </r>
       <r>    52.2197     1.3851    92.3753 </r>
       <r>    52.5609     1.1001    92.7497 </r>
       <r>    52.9022     1.4265    93.2359 </r>
       <r>    53.2434     1.1288    93.6179 </r>
       <r>    53.5846     1.3913    94.0912 </r>
       <r>    53.9259     1.2043    94.4998 </r>
       <r>    54.2671     1.8705    95.1375 </r>
       <r>    54.6084     1.4068    95.6162 </r>
       <r>    54.9496     1.2236    96.0325 </r>
       <r>    55.2909     0.7302    96.2807 </r>
       <r>    55.6321     0.8888    96.5839 </r>
       <r>    55.9734     0.5832    96.7815 </r>
       <r>    56.3146     1.1457    97.1720 </r>
       <r>    56.6559     1.2281    97.5896 </r>
       <r>    56.9971     0.4274    97.7341 </r>
       <r>    57.3384     0.7954    98.0055 </r>
       <r>    57.6796     1.0048    98.3479 </r>
       <r>    58.0209     1.0593    98.7055 </r>
       <r>    58.3621     1.2383    99.1273 </r>
       <r>    58.7034     1.2274    99.5439 </r>
       <r>    59.0446     0.9086    99.8521 </r>
       <r>    59.3858     1.0155   100.1973 </r>
       <r>    59.7271     1.1940   100.6033 </r>
       <r>    60.0683     0.7598   100.8611 </r>
       <r>    60.4096     0.6800   101.0930 </r>
       <r>    60.7508     0.2041   101.1619 </r>
       <r>    61.0921     0.4118   101.3024 </r>
       <r>    61.4333     0.5456   101.4881 </r>
       <r>    61.7746     0.4809   101.6513 </r>
       <r>    62.1158     0.9760   101.9844 </r>
       <r>    62.4571     0.7245   102.2309 </r>
       <r>    62.7983     0.6541   102.4528 </r>
       <r>    63.1396     0.7117   102.6948 </r>
       <r>    63.4808     0.6275   102.9089 </r>
       <r>    63.8221     0.3907   103.0421 </r>
       <r>    64.1633     0.4634   103.1998 </r>
       <r>    64.5046     0.8559   103.4909 </r>
       <r>    64.8458     1.0350   103.8432 </r>
       <r>    65.1871     1.0447   104.1997 </r>
       <r>    65.5283     1.6530   104.7632 </r>
       <r>    65.8695     1.4028   105.2405 </r>
       <r>    66.2108     1.7116   105.8227 </r>
       <r>    66.5520     0.8995   106.1276 </r>
       <r>    66.8933     1.1401   106.5154 </r>
       <r>    67.2345     0.7158   106.7576 </r>
       <r>    67.5758     0.4182   106.8991 </r>
       <r>    67.9170     0.3763   107.0271 </r>
       <r>    68.2583     0.8051   107.3018 </r>
       <r>    68.5995     0.5231   107.4797 </r>
       <r>    68.9408     0.4439   107.6308 </r>
       <r>    69.2820     0.5697   107.8252 </r>
       <r>    69.6233     0.5844   108.0238 </r>
       <r>    69.9645     0.5853   108.2233 </r>
       <r>    70.3058     0.0921   108.2542 </r>
       <r>    70.6470     0.0755   108.2800 </r>
       <r>    70.9883     0.1173   108.3200 </r>
       <r>    71.3295     0.0606   108.3407 </r>
       <r>    71.6707     0.0358   108.3522 </r>
       <r>    72.0120     0.0304   108.3626 </r>
       <r>    72.3532     0.0509   108.3800 </r>
       <r>    72.6945     0.0587   108.4000 </r>
       <r>    73.0357     0.0580   108.4198 </r>
       <r>    73.3770     0.1764   108.4800 </r>
       <r>    73.7182     0.1322   108.5251 </r>
       <r>    74.0595     0.2341   108.6050 </r>
       <r>    74.4007     0.1605   108.6593 </r>
       <r>    74.7420     0.1767   108.7196 </r>
       <r>    75.0832     0.1179   108.7596 </r>
       <r>    75.4245     0.5870   108.9599 </r>
       <r>    75.7657     0.6911   109.1945 </r>
       <r>    76.1070     0.8672   109.4904 </r>
       <r>    76.4482     0.4707   109.6503 </r>
       <r>    76.7895     0.2038   109.7194 </r>
       <r>    77.1307     0.1483   109.7701 </r>
       <r>    77.4720     0.1141   109.8084 </r>
       <r>    77.8132     0.1452   109.8579 </r>
       <r>    78.1544     0.0969   109.8910 </r>
       <r>    78.4957     0.1683   109.9484 </r>
       <r>    78.8369     0.2658   110.0391 </r>
       <r>    79.1782     0.1260   110.0821 </r>
       <r>    79.5194     0.3264   110.1934 </r>
       <r>    79.8607     0.1380   110.2405 </r>
       <r>    80.2019     0.3530   110.3609 </r>
       <r>    80.5432     0.5352   110.5433 </r>
       <r>    80.8844     0.6376   110.7608 </r>
       <r>    81.2257     0.2952   110.8611 </r>
       <r>    81.5669     0.5570   111.0505 </r>
       <r>    81.9082     0.4161   111.1913 </r>
       <r>    82.2494     0.4526   111.3452 </r>
       <r>    82.5907     0.4572   111.5012 </r>
       <r>    82.9319     0.3799   111.6296 </r>
       <r>    83.2732     0.2173   111.7031 </r>
       <r>    83.6144     0.2864   111.8008 </r>
       <r>    83.9556     0.2943   111.9011 </r>
       <r>    84.2969     0.2899   112.0000 </r>
       <r>    84.6381     0.0000   112.0000 </r>
       <r>    84.9794     0.0000   112.0000 </r>
       <r>    85.3206     0.0000   112.0000 </r>
       <r>    85.6619     0.0000   112.0000 </r>
       <r>    86.0031     0.0000   112.0000 </r>
       <r>    86.3444     0.0000   112.0000 </r>
       <r>    86.6856     0.0000   112.0000 </r>
       <r>    87.0269     0.0000   112.0000 </r>
       <r>    87.3681     0.0000   112.0000 </r>
       <r>    87.7094     0.0000   112.0000 </r>
       <r>    88.0506     0.0000   112.0000 </r>
       <r>    88.3919     0.0000   112.0000 </r>
       <r>    88.7331     0.0000   112.0000 </r>
      </set>
     </set>
    </array>
   </total>
  </dos>
 </calculation>
 <structure name="finalpos" >
  <crystal>
   <varray name="basis" >
    <v>       0.00000000       2.81650000       2.81650000 </v>
    <v>       2.81650000       0.00000000       2.81650000 </v>
    <v>       2.81650000       2.81650000       0.00000000 </v>
   </varray>
   <i name="volume">     44.68474278 </i>
   <varray name="rec_basis" >
    <v>      -0.17752530       0.17752530       0.17752530 </v>
    <v>       0.17752530      -0.17752530       0.17752530 </v>
    <v>       0.17752530       0.17752530      -0.17752530 </v>
   </varray>
  </crystal>
  <varray name="positions" >
   <v>       0.00000000       0.00000000       0.00000000 </v>
   <v>       0.25000000       0.25000000       0.25000000 </v>
  </varray>
 </structure>
</modeling>
