 running on   56 total cores
 distrk:  each k-point on   56 cores,    1 groups
 distr:  one band on    1 cores,   56 groups
 using from now: INCAR     
 vasp.5.4.4.18Apr17-6-g9f103f2a35 (build Nov 08 2017 12:56:59) complex          
  
 POSCAR found type information on POSCAR  Ge
 POSCAR found :  1 types and       2 ions
 scaLAPACK will be used

 ----------------------------------------------------------------------------- 
|                                                                             |
|           W    W    AA    RRRRR   N    N  II  N    N   GGGG   !!!           |
|           W    W   A  A   R    R  NN   N  II  NN   N  G    G  !!!           |
|           W    W  A    A  R    R  N N  N  II  N N  N  G       !!!           |
|           W WW W  AAAAAA  RRRRR   N  N N  II  N  N N  G  GGG   !            |
|           WW  WW  A    A  R   R   N   NN  II  N   NN  G    G                |
|           W    W  A    A  R    R  N    N  II  N    N   GGGG   !!!           |
|                                                                             |
|      For optimal performance we recommend to set                            |
|        NCORE= 4 - approx SQRT( number of cores)                             |
|      NCORE specifies how many cores store one orbital (NPAR=cpu/NCORE).     |
|      This setting can  greatly improve the performance of VASP for DFT.     |
|      The default,   NCORE=1            might be grossly inefficient         |
|      on modern multi-core architectures or massively parallel machines.     |
|      Do your own testing !!!!                                               |
|      Unfortunately you need to use the default for GW and RPA calculations. |
|      (for HF NCORE is supported but not extensively tested yet)             |
|                                                                             |
 ----------------------------------------------------------------------------- 

 LDA part: xc-table for Pade appr. of Perdew
 found WAVECAR, reading the header
  number of k-points has changed, file:    16 present:   100
  trying to continue reading WAVECAR, but it might fail
 WARNING: stress and forces are not correct
 POSCAR, INCAR and KPOINTS ok, starting setup
 FFT: planning ...
 reading WAVECAR
 the WAVECAR file was read successfully
 reading imaginary part of occupancies ...
 charge-density read from file: unknown                                 
 entering main loop
       N       E                     dE             d eps       ncg     rms          ort
 gam= 0.000 g(H,U,f)=  0.269E+01 0.407E+02 0.684E-02 ort(H,U,f) = 0.000E+00 0.000E+00 0.000E+00
SDA:   1     0.536367978173E+02    0.53637E+02   -0.17356E+02  5600   0.434E+02 0.000E+00
 gam= 0.382 g(H,U,f)=  0.108E+01 0.155E+02 0.312E-08 ort(H,U,f) = 0.160E+01 0.186E+02 0.209E-08
DMP:   2     0.431308281419E+02   -0.10506E+02   -0.97316E+01  5600   0.166E+02 0.202E+02
 gam= 0.382 g(H,U,f)=  0.240E+00 0.175E+02 0.843E+00 ort(H,U,f) = 0.710E+00 0.333E+02 0.168E+01
DMP:   3     0.322305388791E+02   -0.10900E+02   -0.12902E+02  5600   0.186E+02 0.357E+02
 gam= 0.382 g(H,U,f)=  0.319E-01 0.135E+02 0.246E+00 ort(H,U,f) = 0.625E-01 0.322E+02 0.621E+00
DMP:   4     0.175743695849E+02   -0.14656E+02   -0.10534E+02  5600   0.138E+02 0.329E+02
 gam= 0.382 g(H,U,f)=  0.247E-01 0.783E+01 0.171E+01 ort(H,U,f) =-0.205E-01 0.215E+02 0.471E+01
DMP:   5     0.832128159906E+01   -0.92531E+01   -0.78283E+01  5600   0.957E+01 0.262E+02
 gam= 0.382 g(H,U,f)=  0.196E-01 0.335E+01 0.587E+00 ort(H,U,f) = 0.810E-02 0.102E+02 0.179E+01
DMP:   6     0.157254868267E+01   -0.67487E+01   -0.34186E+01  5600   0.396E+01 0.120E+02
 gam= 0.382 g(H,U,f)=  0.663E-02 0.153E+01 0.220E+00 ort(H,U,f) = 0.109E-01 0.507E+01 0.714E+00
DMP:   7    -0.124876363109E+01   -0.28213E+01   -0.15889E+01  5600   0.176E+01 0.580E+01
 gam= 0.382 g(H,U,f)=  0.135E-02 0.748E+00-0.116E-02 ort(H,U,f) = 0.251E-02 0.265E+01-0.400E-02
DMP:   8    -0.257770412729E+01   -0.13289E+01   -0.70434E+00  5600   0.748E+00 0.265E+01
 gam= 0.382 g(H,U,f)=  0.619E-03 0.333E+00 0.319E-03 ort(H,U,f) =-0.389E-03 0.125E+01 0.138E-02
DMP:   9    -0.318329283852E+01   -0.60559E+00   -0.32523E+00  5600   0.334E+00 0.126E+01
 gam= 0.382 g(H,U,f)=  0.437E-03 0.139E+00 0.505E-03 ort(H,U,f) =-0.692E-04 0.557E+00 0.195E-02
DMP:  10    -0.345964221162E+01   -0.27635E+00   -0.14139E+00  5600   0.140E+00 0.559E+00
 gam= 0.382 g(H,U,f)=  0.196E-03 0.534E-01 0.702E-04 ort(H,U,f) = 0.174E-03 0.227E+00 0.267E-03
DMP:  11    -0.357654682582E+01   -0.11690E+00   -0.56138E-01  5600   0.536E-01 0.227E+00
 gam= 0.382 g(H,U,f)=  0.586E-04 0.187E-01-0.207E-05 ort(H,U,f) = 0.103E-03 0.845E-01-0.953E-05
DMP:  12    -0.362194185738E+01   -0.45395E-01   -0.20424E-01  5600   0.188E-01 0.846E-01
 gam= 0.382 g(H,U,f)=  0.163E-04 0.603E-02 0.292E-04 ort(H,U,f) = 0.259E-04 0.291E-01 0.143E-03
DMP:  13    -0.363777226504E+01   -0.15830E-01   -0.69023E-02  5600   0.607E-02 0.293E-01
 gam= 0.382 g(H,U,f)=  0.696E-05 0.179E-02-0.103E-13 ort(H,U,f) = 0.423E-05 0.933E-02-0.535E-13
DMP:  14    -0.364352038471E+01   -0.57481E-02   -0.21439E-02  5600   0.179E-02 0.934E-02
 gam= 0.382 g(H,U,f)=  0.347E-05 0.483E-03-0.151E-06 ort(H,U,f) = 0.216E-05 0.278E-02-0.105E-05
DMP:  15    -0.364472113277E+01   -0.12007E-02   -0.61879E-03  5600   0.486E-03 0.278E-02
 gam= 0.382 g(H,U,f)=  0.138E-05 0.115E-03-0.552E-07 ort(H,U,f) = 0.149E-05 0.752E-03-0.461E-06
DMP:  16    -0.364518104883E+01   -0.45992E-03   -0.16176E-03  5600   0.117E-03 0.753E-03
 gam= 0.382 g(H,U,f)=  0.453E-06 0.226E-04-0.123E-15 ort(H,U,f) = 0.590E-06 0.178E-03-0.513E-15
DMP:  17    -0.364572617256E+01   -0.54512E-03   -0.36445E-04  5600   0.230E-04 0.178E-03
 gam= 0.382 g(H,U,f)=  0.156E-06 0.294E-05 0.558E-08 ort(H,U,f) = 0.144E-06 0.322E-04 0.207E-08
DMP:  18    -0.364532212855E+01    0.40404E-03   -0.61829E-05  5600   0.310E-05 0.323E-04
 gam= 0.382 g(H,U,f)=  0.652E-07 0.132E-06 0.303E-08 ort(H,U,f) = 0.353E-07 0.238E-05 0.103E-07
DMP:  19    -0.364532570674E+01   -0.35782E-05   -0.45064E-06  5600   0.200E-06 0.243E-05
 final diagonalization
   1 F= -.36453257E+01 E0= -.36455320E+01  d E =0.618934E-03
