<?xml version="1.0" encoding="ISO-8859-1"?>
<modeling>
 <generator>
  <i name="program" type="string">vasp </i>
  <i name="version" type="string">5.4.4.18Apr17-6-g9f103f2a35  </i>
  <i name="subversion" type="string">(build Nov 08 2017 12:56:59) complex            parallel </i>
  <i name="platform" type="string">LinuxIFC </i>
  <i name="date" type="string">2020 02 21 </i>
  <i name="time" type="string">23:12:20 </i>
 </generator>
 <incar>
  <i type="string" name="PREC">normal</i>
  <i type="string" name="ALGO"> D</i>
  <i type="logical" name="LSORBIT"> T  </i>
  <v name="SAXIS">      0.00000000      0.00000000      1.00000000</v>
  <i type="int" name="ISPIN">     2</i>
  <i type="int" name="ICHARG">    11</i>
  <i type="int" name="NELM">   500</i>
  <i name="EDIFF">      0.00010000</i>
  <i name="ENCUT">    300.00000000</i>
  <i type="int" name="NBANDS">   100</i>
  <v name="MAGMOM">      0.00000000      0.00000000      7.00000000      0.00000000      0.00000000      0.00000000</v>
  <i type="int" name="ISMEAR">     0</i>
  <i type="int" name="LMAXMIX">     6</i>
  <i type="logical" name="LWAVE"> F  </i>
  <i type="logical" name="LCHARG"> F  </i>
  <i type="int" name="LORBIT">    11</i>
  <i type="logical" name="LASPH"> T  </i>
  <i type="logical" name="LAECHG"> T  </i>
  <v type="int" name="KPOINT_BSE">    -1     0     0     0</v>
  <i type="int" name="NELM">   500</i>
  <i type="string" name="GGA"> PE</i>
  <i type="logical" name="LDAU"> T  </i>
  <v type="int" name="LDAUL">     3    -1</v>
  <v name="LDAUU">      8.50400000      0.00000000</v>
  <v name="LDAUJ">      0.00000000      0.00000000</v>
  <i type="logical" name="LASPH"> T  </i>
 </incar>
 <structure name="primitive_cell" >
  <crystal>
   <varray name="basis" >
    <v>       0.00000000       2.98400000       2.98400000 </v>
    <v>       2.98400000       0.00000000       2.98400000 </v>
    <v>       2.98400000       2.98400000       0.00000000 </v>
   </varray>
   <i name="volume">     53.14059981 </i>
   <varray name="rec_basis" >
    <v>      -0.16756032       0.16756032       0.16756032 </v>
    <v>       0.16756032      -0.16756032       0.16756032 </v>
    <v>       0.16756032       0.16756032      -0.16756032 </v>
   </varray>
  </crystal>
  <varray name="positions" >
   <v>       0.00000000       0.00000000       0.00000000 </v>
   <v>      -0.50000000      -0.50000000      -0.50000000 </v>
  </varray>
 </structure>
 <varray name="primitive_index" >
  <v type="int" >        1 </v>
  <v type="int" >        2 </v>
 </varray>
 <kpoints>
  <generation param="listgenerated">
   <i name="divisions" type="int">      50 </i>
   <v>       0.50000000       0.00000000       0.50000000 </v>
   <v>       0.37500000       0.37500000       0.75000000 </v>
   <v>       0.00000000       0.00000000       0.00000000 </v>
   <v>       0.50000000       0.50000000       0.50000000 </v>
   <v>       0.50000000       0.25000000       0.75000000 </v>
   <v>       0.50000000       0.00000000       0.50000000 </v>
   <v>       0.00000000       0.00000000       0.00000000 </v>
  </generation>
  <varray name="kpointlist" >
   <v>       0.50000000       0.00000000       0.50000000 </v>
   <v>       0.49744898       0.00765306       0.50510204 </v>
   <v>       0.49489796       0.01530612       0.51020408 </v>
   <v>       0.49234694       0.02295918       0.51530612 </v>
   <v>       0.48979592       0.03061224       0.52040816 </v>
   <v>       0.48724490       0.03826531       0.52551020 </v>
   <v>       0.48469388       0.04591837       0.53061224 </v>
   <v>       0.48214286       0.05357143       0.53571429 </v>
   <v>       0.47959184       0.06122449       0.54081633 </v>
   <v>       0.47704082       0.06887755       0.54591837 </v>
   <v>       0.47448980       0.07653061       0.55102041 </v>
   <v>       0.47193878       0.08418367       0.55612245 </v>
   <v>       0.46938776       0.09183673       0.56122449 </v>
   <v>       0.46683673       0.09948980       0.56632653 </v>
   <v>       0.46428571       0.10714286       0.57142857 </v>
   <v>       0.46173469       0.11479592       0.57653061 </v>
   <v>       0.45918367       0.12244898       0.58163265 </v>
   <v>       0.45663265       0.13010204       0.58673469 </v>
   <v>       0.45408163       0.13775510       0.59183673 </v>
   <v>       0.45153061       0.14540816       0.59693878 </v>
   <v>       0.44897959       0.15306122       0.60204082 </v>
   <v>       0.44642857       0.16071429       0.60714286 </v>
   <v>       0.44387755       0.16836735       0.61224490 </v>
   <v>       0.44132653       0.17602041       0.61734694 </v>
   <v>       0.43877551       0.18367347       0.62244898 </v>
   <v>       0.43622449       0.19132653       0.62755102 </v>
   <v>       0.43367347       0.19897959       0.63265306 </v>
   <v>       0.43112245       0.20663265       0.63775510 </v>
   <v>       0.42857143       0.21428571       0.64285714 </v>
   <v>       0.42602041       0.22193878       0.64795918 </v>
   <v>       0.42346939       0.22959184       0.65306122 </v>
   <v>       0.42091837       0.23724490       0.65816327 </v>
   <v>       0.41836735       0.24489796       0.66326531 </v>
   <v>       0.41581633       0.25255102       0.66836735 </v>
   <v>       0.41326531       0.26020408       0.67346939 </v>
   <v>       0.41071429       0.26785714       0.67857143 </v>
   <v>       0.40816327       0.27551020       0.68367347 </v>
   <v>       0.40561224       0.28316327       0.68877551 </v>
   <v>       0.40306122       0.29081633       0.69387755 </v>
   <v>       0.40051020       0.29846939       0.69897959 </v>
   <v>       0.39795918       0.30612245       0.70408163 </v>
   <v>       0.39540816       0.31377551       0.70918367 </v>
   <v>       0.39285714       0.32142857       0.71428571 </v>
   <v>       0.39030612       0.32908163       0.71938776 </v>
   <v>       0.38775510       0.33673469       0.72448980 </v>
   <v>       0.38520408       0.34438776       0.72959184 </v>
   <v>       0.38265306       0.35204082       0.73469388 </v>
   <v>       0.38010204       0.35969388       0.73979592 </v>
   <v>       0.37755102       0.36734694       0.74489796 </v>
   <v>       0.37500000       0.37500000       0.75000000 </v>
   <v>       0.37500000       0.37500000       0.75000000 </v>
   <v>       0.36734694       0.36734694       0.73469388 </v>
   <v>       0.35969388       0.35969388       0.71938776 </v>
   <v>       0.35204082       0.35204082       0.70408163 </v>
   <v>       0.34438776       0.34438776       0.68877551 </v>
   <v>       0.33673469       0.33673469       0.67346939 </v>
   <v>       0.32908163       0.32908163       0.65816327 </v>
   <v>       0.32142857       0.32142857       0.64285714 </v>
   <v>       0.31377551       0.31377551       0.62755102 </v>
   <v>       0.30612245       0.30612245       0.61224490 </v>
   <v>       0.29846939       0.29846939       0.59693878 </v>
   <v>       0.29081633       0.29081633       0.58163265 </v>
   <v>       0.28316327       0.28316327       0.56632653 </v>
   <v>       0.27551020       0.27551020       0.55102041 </v>
   <v>       0.26785714       0.26785714       0.53571429 </v>
   <v>       0.26020408       0.26020408       0.52040816 </v>
   <v>       0.25255102       0.25255102       0.50510204 </v>
   <v>       0.24489796       0.24489796       0.48979592 </v>
   <v>       0.23724490       0.23724490       0.47448980 </v>
   <v>       0.22959184       0.22959184       0.45918367 </v>
   <v>       0.22193878       0.22193878       0.44387755 </v>
   <v>       0.21428571       0.21428571       0.42857143 </v>
   <v>       0.20663265       0.20663265       0.41326531 </v>
   <v>       0.19897959       0.19897959       0.39795918 </v>
   <v>       0.19132653       0.19132653       0.38265306 </v>
   <v>       0.18367347       0.18367347       0.36734694 </v>
   <v>       0.17602041       0.17602041       0.35204082 </v>
   <v>       0.16836735       0.16836735       0.33673469 </v>
   <v>       0.16071429       0.16071429       0.32142857 </v>
   <v>       0.15306122       0.15306122       0.30612245 </v>
   <v>       0.14540816       0.14540816       0.29081633 </v>
   <v>       0.13775510       0.13775510       0.27551020 </v>
   <v>       0.13010204       0.13010204       0.26020408 </v>
   <v>       0.12244898       0.12244898       0.24489796 </v>
   <v>       0.11479592       0.11479592       0.22959184 </v>
   <v>       0.10714286       0.10714286       0.21428571 </v>
   <v>       0.09948980       0.09948980       0.19897959 </v>
   <v>       0.09183673       0.09183673       0.18367347 </v>
   <v>       0.08418367       0.08418367       0.16836735 </v>
   <v>       0.07653061       0.07653061       0.15306122 </v>
   <v>       0.06887755       0.06887755       0.13775510 </v>
   <v>       0.06122449       0.06122449       0.12244898 </v>
   <v>       0.05357143       0.05357143       0.10714286 </v>
   <v>       0.04591837       0.04591837       0.09183673 </v>
   <v>       0.03826531       0.03826531       0.07653061 </v>
   <v>       0.03061224       0.03061224       0.06122449 </v>
   <v>       0.02295918       0.02295918       0.04591837 </v>
   <v>       0.01530612       0.01530612       0.03061224 </v>
   <v>       0.00765306       0.00765306       0.01530612 </v>
   <v>       0.00000000       0.00000000       0.00000000 </v>
   <v>       0.00000000       0.00000000       0.00000000 </v>
   <v>       0.01020408       0.01020408       0.01020408 </v>
   <v>       0.02040816       0.02040816       0.02040816 </v>
   <v>       0.03061224       0.03061224       0.03061224 </v>
   <v>       0.04081633       0.04081633       0.04081633 </v>
   <v>       0.05102041       0.05102041       0.05102041 </v>
   <v>       0.06122449       0.06122449       0.06122449 </v>
   <v>       0.07142857       0.07142857       0.07142857 </v>
   <v>       0.08163265       0.08163265       0.08163265 </v>
   <v>       0.09183673       0.09183673       0.09183673 </v>
   <v>       0.10204082       0.10204082       0.10204082 </v>
   <v>       0.11224490       0.11224490       0.11224490 </v>
   <v>       0.12244898       0.12244898       0.12244898 </v>
   <v>       0.13265306       0.13265306       0.13265306 </v>
   <v>       0.14285714       0.14285714       0.14285714 </v>
   <v>       0.15306122       0.15306122       0.15306122 </v>
   <v>       0.16326531       0.16326531       0.16326531 </v>
   <v>       0.17346939       0.17346939       0.17346939 </v>
   <v>       0.18367347       0.18367347       0.18367347 </v>
   <v>       0.19387755       0.19387755       0.19387755 </v>
   <v>       0.20408163       0.20408163       0.20408163 </v>
   <v>       0.21428571       0.21428571       0.21428571 </v>
   <v>       0.22448980       0.22448980       0.22448980 </v>
   <v>       0.23469388       0.23469388       0.23469388 </v>
   <v>       0.24489796       0.24489796       0.24489796 </v>
   <v>       0.25510204       0.25510204       0.25510204 </v>
   <v>       0.26530612       0.26530612       0.26530612 </v>
   <v>       0.27551020       0.27551020       0.27551020 </v>
   <v>       0.28571429       0.28571429       0.28571429 </v>
   <v>       0.29591837       0.29591837       0.29591837 </v>
   <v>       0.30612245       0.30612245       0.30612245 </v>
   <v>       0.31632653       0.31632653       0.31632653 </v>
   <v>       0.32653061       0.32653061       0.32653061 </v>
   <v>       0.33673469       0.33673469       0.33673469 </v>
   <v>       0.34693878       0.34693878       0.34693878 </v>
   <v>       0.35714286       0.35714286       0.35714286 </v>
   <v>       0.36734694       0.36734694       0.36734694 </v>
   <v>       0.37755102       0.37755102       0.37755102 </v>
   <v>       0.38775510       0.38775510       0.38775510 </v>
   <v>       0.39795918       0.39795918       0.39795918 </v>
   <v>       0.40816327       0.40816327       0.40816327 </v>
   <v>       0.41836735       0.41836735       0.41836735 </v>
   <v>       0.42857143       0.42857143       0.42857143 </v>
   <v>       0.43877551       0.43877551       0.43877551 </v>
   <v>       0.44897959       0.44897959       0.44897959 </v>
   <v>       0.45918367       0.45918367       0.45918367 </v>
   <v>       0.46938776       0.46938776       0.46938776 </v>
   <v>       0.47959184       0.47959184       0.47959184 </v>
   <v>       0.48979592       0.48979592       0.48979592 </v>
   <v>       0.50000000       0.50000000       0.50000000 </v>
   <v>       0.50000000       0.50000000       0.50000000 </v>
   <v>       0.50000000       0.49489796       0.50510204 </v>
   <v>       0.50000000       0.48979592       0.51020408 </v>
   <v>       0.50000000       0.48469388       0.51530612 </v>
   <v>       0.50000000       0.47959184       0.52040816 </v>
   <v>       0.50000000       0.47448980       0.52551020 </v>
   <v>       0.50000000       0.46938776       0.53061224 </v>
   <v>       0.50000000       0.46428571       0.53571429 </v>
   <v>       0.50000000       0.45918367       0.54081633 </v>
   <v>       0.50000000       0.45408163       0.54591837 </v>
   <v>       0.50000000       0.44897959       0.55102041 </v>
   <v>       0.50000000       0.44387755       0.55612245 </v>
   <v>       0.50000000       0.43877551       0.56122449 </v>
   <v>       0.50000000       0.43367347       0.56632653 </v>
   <v>       0.50000000       0.42857143       0.57142857 </v>
   <v>       0.50000000       0.42346939       0.57653061 </v>
   <v>       0.50000000       0.41836735       0.58163265 </v>
   <v>       0.50000000       0.41326531       0.58673469 </v>
   <v>       0.50000000       0.40816327       0.59183673 </v>
   <v>       0.50000000       0.40306122       0.59693878 </v>
   <v>       0.50000000       0.39795918       0.60204082 </v>
   <v>       0.50000000       0.39285714       0.60714286 </v>
   <v>       0.50000000       0.38775510       0.61224490 </v>
   <v>       0.50000000       0.38265306       0.61734694 </v>
   <v>       0.50000000       0.37755102       0.62244898 </v>
   <v>       0.50000000       0.37244898       0.62755102 </v>
   <v>       0.50000000       0.36734694       0.63265306 </v>
   <v>       0.50000000       0.36224490       0.63775510 </v>
   <v>       0.50000000       0.35714286       0.64285714 </v>
   <v>       0.50000000       0.35204082       0.64795918 </v>
   <v>       0.50000000       0.34693878       0.65306122 </v>
   <v>       0.50000000       0.34183673       0.65816327 </v>
   <v>       0.50000000       0.33673469       0.66326531 </v>
   <v>       0.50000000       0.33163265       0.66836735 </v>
   <v>       0.50000000       0.32653061       0.67346939 </v>
   <v>       0.50000000       0.32142857       0.67857143 </v>
   <v>       0.50000000       0.31632653       0.68367347 </v>
   <v>       0.50000000       0.31122449       0.68877551 </v>
   <v>       0.50000000       0.30612245       0.69387755 </v>
   <v>       0.50000000       0.30102041       0.69897959 </v>
   <v>       0.50000000       0.29591837       0.70408163 </v>
   <v>       0.50000000       0.29081633       0.70918367 </v>
   <v>       0.50000000       0.28571429       0.71428571 </v>
   <v>       0.50000000       0.28061224       0.71938776 </v>
   <v>       0.50000000       0.27551020       0.72448980 </v>
   <v>       0.50000000       0.27040816       0.72959184 </v>
   <v>       0.50000000       0.26530612       0.73469388 </v>
   <v>       0.50000000       0.26020408       0.73979592 </v>
   <v>       0.50000000       0.25510204       0.74489796 </v>
   <v>       0.50000000       0.25000000       0.75000000 </v>
   <v>       0.50000000       0.25000000       0.75000000 </v>
   <v>       0.50000000       0.24489796       0.74489796 </v>
   <v>       0.50000000       0.23979592       0.73979592 </v>
   <v>       0.50000000       0.23469388       0.73469388 </v>
   <v>       0.50000000       0.22959184       0.72959184 </v>
   <v>       0.50000000       0.22448980       0.72448980 </v>
   <v>       0.50000000       0.21938776       0.71938776 </v>
   <v>       0.50000000       0.21428571       0.71428571 </v>
   <v>       0.50000000       0.20918367       0.70918367 </v>
   <v>       0.50000000       0.20408163       0.70408163 </v>
   <v>       0.50000000       0.19897959       0.69897959 </v>
   <v>       0.50000000       0.19387755       0.69387755 </v>
   <v>       0.50000000       0.18877551       0.68877551 </v>
   <v>       0.50000000       0.18367347       0.68367347 </v>
   <v>       0.50000000       0.17857143       0.67857143 </v>
   <v>       0.50000000       0.17346939       0.67346939 </v>
   <v>       0.50000000       0.16836735       0.66836735 </v>
   <v>       0.50000000       0.16326531       0.66326531 </v>
   <v>       0.50000000       0.15816327       0.65816327 </v>
   <v>       0.50000000       0.15306122       0.65306122 </v>
   <v>       0.50000000       0.14795918       0.64795918 </v>
   <v>       0.50000000       0.14285714       0.64285714 </v>
   <v>       0.50000000       0.13775510       0.63775510 </v>
   <v>       0.50000000       0.13265306       0.63265306 </v>
   <v>       0.50000000       0.12755102       0.62755102 </v>
   <v>       0.50000000       0.12244898       0.62244898 </v>
   <v>       0.50000000       0.11734694       0.61734694 </v>
   <v>       0.50000000       0.11224490       0.61224490 </v>
   <v>       0.50000000       0.10714286       0.60714286 </v>
   <v>       0.50000000       0.10204082       0.60204082 </v>
   <v>       0.50000000       0.09693878       0.59693878 </v>
   <v>       0.50000000       0.09183673       0.59183673 </v>
   <v>       0.50000000       0.08673469       0.58673469 </v>
   <v>       0.50000000       0.08163265       0.58163265 </v>
   <v>       0.50000000       0.07653061       0.57653061 </v>
   <v>       0.50000000       0.07142857       0.57142857 </v>
   <v>       0.50000000       0.06632653       0.56632653 </v>
   <v>       0.50000000       0.06122449       0.56122449 </v>
   <v>       0.50000000       0.05612245       0.55612245 </v>
   <v>       0.50000000       0.05102041       0.55102041 </v>
   <v>       0.50000000       0.04591837       0.54591837 </v>
   <v>       0.50000000       0.04081633       0.54081633 </v>
   <v>       0.50000000       0.03571429       0.53571429 </v>
   <v>       0.50000000       0.03061224       0.53061224 </v>
   <v>       0.50000000       0.02551020       0.52551020 </v>
   <v>       0.50000000       0.02040816       0.52040816 </v>
   <v>       0.50000000       0.01530612       0.51530612 </v>
   <v>       0.50000000       0.01020408       0.51020408 </v>
   <v>       0.50000000       0.00510204       0.50510204 </v>
   <v>       0.50000000       0.00000000       0.50000000 </v>
   <v>       0.50000000       0.00000000       0.50000000 </v>
   <v>       0.48979592       0.00000000       0.48979592 </v>
   <v>       0.47959184       0.00000000       0.47959184 </v>
   <v>       0.46938776       0.00000000       0.46938776 </v>
   <v>       0.45918367       0.00000000       0.45918367 </v>
   <v>       0.44897959       0.00000000       0.44897959 </v>
   <v>       0.43877551       0.00000000       0.43877551 </v>
   <v>       0.42857143       0.00000000       0.42857143 </v>
   <v>       0.41836735       0.00000000       0.41836735 </v>
   <v>       0.40816327       0.00000000       0.40816327 </v>
   <v>       0.39795918       0.00000000       0.39795918 </v>
   <v>       0.38775510       0.00000000       0.38775510 </v>
   <v>       0.37755102       0.00000000       0.37755102 </v>
   <v>       0.36734694       0.00000000       0.36734694 </v>
   <v>       0.35714286       0.00000000       0.35714286 </v>
   <v>       0.34693878       0.00000000       0.34693878 </v>
   <v>       0.33673469       0.00000000       0.33673469 </v>
   <v>       0.32653061       0.00000000       0.32653061 </v>
   <v>       0.31632653       0.00000000       0.31632653 </v>
   <v>       0.30612245       0.00000000       0.30612245 </v>
   <v>       0.29591837       0.00000000       0.29591837 </v>
   <v>       0.28571429       0.00000000       0.28571429 </v>
   <v>       0.27551020       0.00000000       0.27551020 </v>
   <v>       0.26530612       0.00000000       0.26530612 </v>
   <v>       0.25510204       0.00000000       0.25510204 </v>
   <v>       0.24489796       0.00000000       0.24489796 </v>
   <v>       0.23469388       0.00000000       0.23469388 </v>
   <v>       0.22448980       0.00000000       0.22448980 </v>
   <v>       0.21428571       0.00000000       0.21428571 </v>
   <v>       0.20408163       0.00000000       0.20408163 </v>
   <v>       0.19387755       0.00000000       0.19387755 </v>
   <v>       0.18367347       0.00000000       0.18367347 </v>
   <v>       0.17346939       0.00000000       0.17346939 </v>
   <v>       0.16326531       0.00000000       0.16326531 </v>
   <v>       0.15306122       0.00000000       0.15306122 </v>
   <v>       0.14285714       0.00000000       0.14285714 </v>
   <v>       0.13265306       0.00000000       0.13265306 </v>
   <v>       0.12244898       0.00000000       0.12244898 </v>
   <v>       0.11224490       0.00000000       0.11224490 </v>
   <v>       0.10204082       0.00000000       0.10204082 </v>
   <v>       0.09183673       0.00000000       0.09183673 </v>
   <v>       0.08163265       0.00000000       0.08163265 </v>
   <v>       0.07142857       0.00000000       0.07142857 </v>
   <v>       0.06122449       0.00000000       0.06122449 </v>
   <v>       0.05102041       0.00000000       0.05102041 </v>
   <v>       0.04081633       0.00000000       0.04081633 </v>
   <v>       0.03061224       0.00000000       0.03061224 </v>
   <v>       0.02040816       0.00000000       0.02040816 </v>
   <v>       0.01020408       0.00000000       0.01020408 </v>
   <v>       0.00000000       0.00000000       0.00000000 </v>
  </varray>
  <varray name="weights" >
   <v>       0.00333333 </v>
   <v>       0.00333333 </v>
   <v>       0.00333333 </v>
   <v>       0.00333333 </v>
   <v>       0.00333333 </v>
   <v>       0.00333333 </v>
   <v>       0.00333333 </v>
   <v>       0.00333333 </v>
   <v>       0.00333333 </v>
   <v>       0.00333333 </v>
   <v>       0.00333333 </v>
   <v>       0.00333333 </v>
   <v>       0.00333333 </v>
   <v>       0.00333333 </v>
   <v>       0.00333333 </v>
   <v>       0.00333333 </v>
   <v>       0.00333333 </v>
   <v>       0.00333333 </v>
   <v>       0.00333333 </v>
   <v>       0.00333333 </v>
   <v>       0.00333333 </v>
   <v>       0.00333333 </v>
   <v>       0.00333333 </v>
   <v>       0.00333333 </v>
   <v>       0.00333333 </v>
   <v>       0.00333333 </v>
   <v>       0.00333333 </v>
   <v>       0.00333333 </v>
   <v>       0.00333333 </v>
   <v>       0.00333333 </v>
   <v>       0.00333333 </v>
   <v>       0.00333333 </v>
   <v>       0.00333333 </v>
   <v>       0.00333333 </v>
   <v>       0.00333333 </v>
   <v>       0.00333333 </v>
   <v>       0.00333333 </v>
   <v>       0.00333333 </v>
   <v>       0.00333333 </v>
   <v>       0.00333333 </v>
   <v>       0.00333333 </v>
   <v>       0.00333333 </v>
   <v>       0.00333333 </v>
   <v>       0.00333333 </v>
   <v>       0.00333333 </v>
   <v>       0.00333333 </v>
   <v>       0.00333333 </v>
   <v>       0.00333333 </v>
   <v>       0.00333333 </v>
   <v>       0.00333333 </v>
   <v>       0.00333333 </v>
   <v>       0.00333333 </v>
   <v>       0.00333333 </v>
   <v>       0.00333333 </v>
   <v>       0.00333333 </v>
   <v>       0.00333333 </v>
   <v>       0.00333333 </v>
   <v>       0.00333333 </v>
   <v>       0.00333333 </v>
   <v>       0.00333333 </v>
   <v>       0.00333333 </v>
   <v>       0.00333333 </v>
   <v>       0.00333333 </v>
   <v>       0.00333333 </v>
   <v>       0.00333333 </v>
   <v>       0.00333333 </v>
   <v>       0.00333333 </v>
   <v>       0.00333333 </v>
   <v>       0.00333333 </v>
   <v>       0.00333333 </v>
   <v>       0.00333333 </v>
   <v>       0.00333333 </v>
   <v>       0.00333333 </v>
   <v>       0.00333333 </v>
   <v>       0.00333333 </v>
   <v>       0.00333333 </v>
   <v>       0.00333333 </v>
   <v>       0.00333333 </v>
   <v>       0.00333333 </v>
   <v>       0.00333333 </v>
   <v>       0.00333333 </v>
   <v>       0.00333333 </v>
   <v>       0.00333333 </v>
   <v>       0.00333333 </v>
   <v>       0.00333333 </v>
   <v>       0.00333333 </v>
   <v>       0.00333333 </v>
   <v>       0.00333333 </v>
   <v>       0.00333333 </v>
   <v>       0.00333333 </v>
   <v>       0.00333333 </v>
   <v>       0.00333333 </v>
   <v>       0.00333333 </v>
   <v>       0.00333333 </v>
   <v>       0.00333333 </v>
   <v>       0.00333333 </v>
   <v>       0.00333333 </v>
   <v>       0.00333333 </v>
   <v>       0.00333333 </v>
   <v>       0.00333333 </v>
   <v>       0.00333333 </v>
   <v>       0.00333333 </v>
   <v>       0.00333333 </v>
   <v>       0.00333333 </v>
   <v>       0.00333333 </v>
   <v>       0.00333333 </v>
   <v>       0.00333333 </v>
   <v>       0.00333333 </v>
   <v>       0.00333333 </v>
   <v>       0.00333333 </v>
   <v>       0.00333333 </v>
   <v>       0.00333333 </v>
   <v>       0.00333333 </v>
   <v>       0.00333333 </v>
   <v>       0.00333333 </v>
   <v>       0.00333333 </v>
   <v>       0.00333333 </v>
   <v>       0.00333333 </v>
   <v>       0.00333333 </v>
   <v>       0.00333333 </v>
   <v>       0.00333333 </v>
   <v>       0.00333333 </v>
   <v>       0.00333333 </v>
   <v>       0.00333333 </v>
   <v>       0.00333333 </v>
   <v>       0.00333333 </v>
   <v>       0.00333333 </v>
   <v>       0.00333333 </v>
   <v>       0.00333333 </v>
   <v>       0.00333333 </v>
   <v>       0.00333333 </v>
   <v>       0.00333333 </v>
   <v>       0.00333333 </v>
   <v>       0.00333333 </v>
   <v>       0.00333333 </v>
   <v>       0.00333333 </v>
   <v>       0.00333333 </v>
   <v>       0.00333333 </v>
   <v>       0.00333333 </v>
   <v>       0.00333333 </v>
   <v>       0.00333333 </v>
   <v>       0.00333333 </v>
   <v>       0.00333333 </v>
   <v>       0.00333333 </v>
   <v>       0.00333333 </v>
   <v>       0.00333333 </v>
   <v>       0.00333333 </v>
   <v>       0.00333333 </v>
   <v>       0.00333333 </v>
   <v>       0.00333333 </v>
   <v>       0.00333333 </v>
   <v>       0.00333333 </v>
   <v>       0.00333333 </v>
   <v>       0.00333333 </v>
   <v>       0.00333333 </v>
   <v>       0.00333333 </v>
   <v>       0.00333333 </v>
   <v>       0.00333333 </v>
   <v>       0.00333333 </v>
   <v>       0.00333333 </v>
   <v>       0.00333333 </v>
   <v>       0.00333333 </v>
   <v>       0.00333333 </v>
   <v>       0.00333333 </v>
   <v>       0.00333333 </v>
   <v>       0.00333333 </v>
   <v>       0.00333333 </v>
   <v>       0.00333333 </v>
   <v>       0.00333333 </v>
   <v>       0.00333333 </v>
   <v>       0.00333333 </v>
   <v>       0.00333333 </v>
   <v>       0.00333333 </v>
   <v>       0.00333333 </v>
   <v>       0.00333333 </v>
   <v>       0.00333333 </v>
   <v>       0.00333333 </v>
   <v>       0.00333333 </v>
   <v>       0.00333333 </v>
   <v>       0.00333333 </v>
   <v>       0.00333333 </v>
   <v>       0.00333333 </v>
   <v>       0.00333333 </v>
   <v>       0.00333333 </v>
   <v>       0.00333333 </v>
   <v>       0.00333333 </v>
   <v>       0.00333333 </v>
   <v>       0.00333333 </v>
   <v>       0.00333333 </v>
   <v>       0.00333333 </v>
   <v>       0.00333333 </v>
   <v>       0.00333333 </v>
   <v>       0.00333333 </v>
   <v>       0.00333333 </v>
   <v>       0.00333333 </v>
   <v>       0.00333333 </v>
   <v>       0.00333333 </v>
   <v>       0.00333333 </v>
   <v>       0.00333333 </v>
   <v>       0.00333333 </v>
   <v>       0.00333333 </v>
   <v>       0.00333333 </v>
   <v>       0.00333333 </v>
   <v>       0.00333333 </v>
   <v>       0.00333333 </v>
   <v>       0.00333333 </v>
   <v>       0.00333333 </v>
   <v>       0.00333333 </v>
   <v>       0.00333333 </v>
   <v>       0.00333333 </v>
   <v>       0.00333333 </v>
   <v>       0.00333333 </v>
   <v>       0.00333333 </v>
   <v>       0.00333333 </v>
   <v>       0.00333333 </v>
   <v>       0.00333333 </v>
   <v>       0.00333333 </v>
   <v>       0.00333333 </v>
   <v>       0.00333333 </v>
   <v>       0.00333333 </v>
   <v>       0.00333333 </v>
   <v>       0.00333333 </v>
   <v>       0.00333333 </v>
   <v>       0.00333333 </v>
   <v>       0.00333333 </v>
   <v>       0.00333333 </v>
   <v>       0.00333333 </v>
   <v>       0.00333333 </v>
   <v>       0.00333333 </v>
   <v>       0.00333333 </v>
   <v>       0.00333333 </v>
   <v>       0.00333333 </v>
   <v>       0.00333333 </v>
   <v>       0.00333333 </v>
   <v>       0.00333333 </v>
   <v>       0.00333333 </v>
   <v>       0.00333333 </v>
   <v>       0.00333333 </v>
   <v>       0.00333333 </v>
   <v>       0.00333333 </v>
   <v>       0.00333333 </v>
   <v>       0.00333333 </v>
   <v>       0.00333333 </v>
   <v>       0.00333333 </v>
   <v>       0.00333333 </v>
   <v>       0.00333333 </v>
   <v>       0.00333333 </v>
   <v>       0.00333333 </v>
   <v>       0.00333333 </v>
   <v>       0.00333333 </v>
   <v>       0.00333333 </v>
   <v>       0.00333333 </v>
   <v>       0.00333333 </v>
   <v>       0.00333333 </v>
   <v>       0.00333333 </v>
   <v>       0.00333333 </v>
   <v>       0.00333333 </v>
   <v>       0.00333333 </v>
   <v>       0.00333333 </v>
   <v>       0.00333333 </v>
   <v>       0.00333333 </v>
   <v>       0.00333333 </v>
   <v>       0.00333333 </v>
   <v>       0.00333333 </v>
   <v>       0.00333333 </v>
   <v>       0.00333333 </v>
   <v>       0.00333333 </v>
   <v>       0.00333333 </v>
   <v>       0.00333333 </v>
   <v>       0.00333333 </v>
   <v>       0.00333333 </v>
   <v>       0.00333333 </v>
   <v>       0.00333333 </v>
   <v>       0.00333333 </v>
   <v>       0.00333333 </v>
   <v>       0.00333333 </v>
   <v>       0.00333333 </v>
   <v>       0.00333333 </v>
   <v>       0.00333333 </v>
   <v>       0.00333333 </v>
   <v>       0.00333333 </v>
   <v>       0.00333333 </v>
   <v>       0.00333333 </v>
   <v>       0.00333333 </v>
   <v>       0.00333333 </v>
   <v>       0.00333333 </v>
   <v>       0.00333333 </v>
   <v>       0.00333333 </v>
   <v>       0.00333333 </v>
   <v>       0.00333333 </v>
   <v>       0.00333333 </v>
   <v>       0.00333333 </v>
   <v>       0.00333333 </v>
   <v>       0.00333333 </v>
   <v>       0.00333333 </v>
   <v>       0.00333333 </v>
   <v>       0.00333333 </v>
   <v>       0.00333333 </v>
   <v>       0.00333333 </v>
   <v>       0.00333333 </v>
  </varray>
 </kpoints>
 <parameters>
  <separator name="general" >
   <i type="string" name="SYSTEM">unknown system</i>
   <i type="logical" name="LCOMPAT"> F  </i>
  </separator>
  <separator name="electronic" >
   <i type="string" name="PREC">normal</i>
   <i name="ENMAX">    300.00000000</i>
   <i name="ENAUG">    549.62800000</i>
   <i name="EDIFF">      0.00010000</i>
   <i type="int" name="IALGO">    53</i>
   <i type="int" name="IWAVPR">    10</i>
   <i type="int" name="NBANDS">   105</i>
   <i name="NELECT">     23.00000000</i>
   <i type="int" name="TURBO">     0</i>
   <i type="int" name="IRESTART">     0</i>
   <i type="int" name="NREBOOT">     0</i>
   <i type="int" name="NMIN">     0</i>
   <i name="EREF">      0.00000000</i>
   <separator name="electronic smearing" >
    <i type="int" name="ISMEAR">     0</i>
    <i name="SIGMA">      0.20000000</i>
    <i name="KSPACING">      0.50000000</i>
    <i type="logical" name="KGAMMA"> T  </i>
   </separator>
   <separator name="electronic projectors" >
    <i type="logical" name="LREAL"> F  </i>
    <v name="ROPT">      0.00000000      0.00000000</v>
    <i type="int" name="LMAXPAW">  -100</i>
    <i type="int" name="LMAXMIX">     6</i>
    <i type="logical" name="NLSPLINE"> F  </i>
   </separator>
   <separator name="electronic startup" >
    <i type="int" name="ISTART">     1</i>
    <i type="int" name="ICHARG">    11</i>
    <i type="int" name="INIWAV">     1</i>
   </separator>
   <separator name="electronic spin" >
    <i type="int" name="ISPIN">     1</i>
    <i type="logical" name="LNONCOLLINEAR"> T  </i>
    <v name="MAGMOM">      0.00000000      0.00000000      7.00000000      0.00000000      0.00000000      0.00000000</v>
    <i name="NUPDOWN">     -1.00000000</i>
    <i type="logical" name="LSORBIT"> T  </i>
    <v name="SAXIS">      0.00000000      0.00000000      1.00000000</v>
    <i type="logical" name="LSPIRAL"> F  </i>
    <v name="QSPIRAL">      0.00000000      0.00000000      0.00000000</v>
    <i type="logical" name="LZEROZ"> F  </i>
   </separator>
   <separator name="electronic exchange-correlation" >
    <i type="logical" name="LASPH"> T  </i>
    <i type="logical" name="LMETAGGA"> F  </i>
   </separator>
   <separator name="electronic convergence" >
    <i type="int" name="NELM">   500</i>
    <i type="int" name="NELMDL">     0</i>
    <i type="int" name="NELMIN">     2</i>
    <i name="ENINI">    300.00000000</i>
    <separator name="electronic convergence detail" >
     <i type="logical" name="LDIAG"> T  </i>
     <i type="logical" name="LSUBROT"> F  </i>
     <i name="WEIMIN">      0.00000000</i>
     <i name="EBREAK">      0.00000024</i>
     <i name="DEPER">      0.30000000</i>
     <i type="int" name="NRMM">     4</i>
     <i name="TIME">      0.40000000</i>
    </separator>
   </separator>
   <separator name="electronic mixer" >
    <i name="AMIX">      0.40000000</i>
    <i name="BMIX">      1.00000000</i>
    <i name="AMIN">      0.10000000</i>
    <i name="AMIX_MAG">      1.60000000</i>
    <i name="BMIX_MAG">      1.00000000</i>
    <separator name="electronic mixer details" >
     <i type="int" name="IMIX">     4</i>
     <i type="logical" name="MIXFIRST"> F  </i>
     <i type="int" name="MAXMIX">   -45</i>
     <i name="WC">    100.00000000</i>
     <i type="int" name="INIMIX">     1</i>
     <i type="int" name="MIXPRE">     1</i>
     <i type="int" name="MREMOVE">     5</i>
    </separator>
   </separator>
   <separator name="electronic dipolcorrection" >
    <i type="logical" name="LDIPOL"> F  </i>
    <i type="logical" name="LMONO"> F  </i>
    <i type="int" name="IDIPOL">     0</i>
    <i name="EPSILON">      1.00000000</i>
    <v name="DIPOL">   -100.00000000   -100.00000000   -100.00000000</v>
    <i name="EFIELD">      0.00000000</i>
   </separator>
  </separator>
  <separator name="grids" >
   <i type="int" name="NGX">    18</i>
   <i type="int" name="NGY">    18</i>
   <i type="int" name="NGZ">    18</i>
   <i type="int" name="NGXF">    36</i>
   <i type="int" name="NGYF">    36</i>
   <i type="int" name="NGZF">    36</i>
   <i type="logical" name="ADDGRID"> F  </i>
  </separator>
  <separator name="ionic" >
   <i type="int" name="NSW">     0</i>
   <i type="int" name="IBRION">    -1</i>
   <i type="int" name="MDALGO">     0</i>
   <i type="int" name="ISIF">     2</i>
   <i name="PSTRESS">      0.00000000</i>
   <i name="EDIFFG">      0.00100000</i>
   <i type="int" name="NFREE">     0</i>
   <i name="POTIM">      0.50000000</i>
   <i name="SMASS">     -3.00000000</i>
   <i name="SCALEE">      1.00000000</i>
  </separator>
  <separator name="ionic md" >
   <i name="TEBEG">      0.00010000</i>
   <i name="TEEND">      0.00010000</i>
   <i type="int" name="NBLOCK">     1</i>
   <i type="int" name="KBLOCK">     1</i>
   <i type="int" name="NPACO">   256</i>
   <i name="APACO">     16.00000000</i>
  </separator>
  <separator name="symmetry" >
   <i type="int" name="ISYM">     2</i>
   <i name="SYMPREC">      0.00001000</i>
  </separator>
  <separator name="dos" >
   <i type="int" name="LORBIT">    11</i>
   <v name="RWIGS">     -1.00000000     -1.00000000</v>
   <i type="int" name="NEDOS">   301</i>
   <i name="EMIN">     10.00000000</i>
   <i name="EMAX">    -10.00000000</i>
   <i name="EFERMI">      0.00000000</i>
  </separator>
  <separator name="writing" >
   <i type="int" name="NWRITE">     2</i>
   <i type="logical" name="LWAVE"> F  </i>
   <i type="logical" name="LDOWNSAMPLE"> F  </i>
   <i type="logical" name="LCHARG"> F  </i>
   <i type="logical" name="LPARD"> F  </i>
   <i type="logical" name="LVTOT"> F  </i>
   <i type="logical" name="LVHAR"> F  </i>
   <i type="logical" name="LELF"> F  </i>
   <i type="logical" name="LOPTICS"> F  </i>
   <v name="STM">      0.00000000      0.00000000      0.00000000      0.00000000      0.00000000      0.00000000      0.00000000</v>
  </separator>
  <separator name="performance" >
   <i type="int" name="NPAR">     7</i>
   <i type="int" name="NSIM">     4</i>
   <i type="int" name="NBLK">    -1</i>
   <i type="logical" name="LPLANE"> T  </i>
   <i type="logical" name="LSCALAPACK"> T  </i>
   <i type="logical" name="LSCAAWARE"> T  </i>
   <i type="logical" name="LSCALU"> F  </i>
   <i type="logical" name="LASYNC"> F  </i>
   <i type="logical" name="LORBITALREAL"> F  </i>
  </separator>
  <separator name="miscellaneous" >
   <i type="int" name="IDIOT">     3</i>
   <i type="int" name="ISPECIAL">     0</i>
   <i type="logical" name="LMUSIC"> F  </i>
   <v name="POMASS">    151.96500000     32.06600000</v>
   <v name="DARWINR">      0.00000000      0.00000000</v>
   <v name="DARWINV">      1.00000000      1.00000000</v>
   <i type="logical" name="LCORR"> T  </i>
  </separator>
  <i type="logical" name="GGA_COMPAT"> T  </i>
  <i type="logical" name="LBERRY"> F  </i>
  <i type="int" name="ICORELEVEL">     0</i>
  <i type="logical" name="LDAU"> T  </i>
  <v type="int" name="LDAUTYPE">     2</v>
  <v type="int" name="LDAUL">     3</v>
  <v name="LDAUU">      8.50400000</v>
  <v name="LDAUJ">      0.00000000</v>
  <i type="int" name="LDAUPRINT">     0</i>
  <i type="int" name="I_CONSTRAINED_M">     0</i>
  <separator name="electronic exchange-correlation" >
   <i type="string" name="GGA">PE</i>
   <i type="int" name="VOSKOWN">     0</i>
   <i type="logical" name="LHFCALC"> F  </i>
   <i type="string" name="PRECFOCK"></i>
   <i type="logical" name="LSYMGRAD"> F  </i>
   <i type="logical" name="LHFONE"> F  </i>
   <i type="logical" name="LRHFCALC"> F  </i>
   <i type="logical" name="LTHOMAS"> F  </i>
   <i type="logical" name="LMODELHF"> F  </i>
   <i name="ENCUT4O">     -1.00000000</i>
   <i type="int" name="EXXOEP">     0</i>
   <i type="int" name="FOURORBIT">     0</i>
   <i name="AEXX">      0.00000000</i>
   <i name="HFALPHA">      0.00000000</i>
   <i name="MCALPHA">      0.00000000</i>
   <i name="ALDAX">      1.00000000</i>
   <i name="AGGAX">      1.00000000</i>
   <i name="ALDAC">      1.00000000</i>
   <i name="AGGAC">      1.00000000</i>
   <i type="int" name="NKREDX">     1</i>
   <i type="int" name="NKREDY">     1</i>
   <i type="int" name="NKREDZ">     1</i>
   <i type="logical" name="SHIFTRED"> F  </i>
   <i type="logical" name="ODDONLY"> F  </i>
   <i type="logical" name="EVENONLY"> F  </i>
   <i type="int" name="LMAXFOCK">     0</i>
   <i type="int" name="NMAXFOCKAE">     0</i>
   <i type="logical" name="LFOCKAEDFT"> F  </i>
   <i name="HFSCREEN">      0.00000000</i>
   <i name="HFSCREENC">      0.00000000</i>
   <i type="int" name="NBANDSGWLOW">     0</i>
  </separator>
  <separator name="vdW DFT" >
   <i type="logical" name="LUSE_VDW"> F  </i>
   <i name="Zab_VDW">     -0.84910000</i>
   <i name="PARAM1">      0.12340000</i>
   <i name="PARAM2">      1.00000000</i>
   <i name="PARAM3">      0.00000000</i>
  </separator>
  <separator name="model GW" >
   <i type="int" name="MODEL_GW">     0</i>
   <i name="MODEL_EPS0">     15.94217994</i>
   <i name="MODEL_ALPHA">      1.00000000</i>
  </separator>
  <separator name="linear response parameters" >
   <i type="logical" name="LEPSILON"> F  </i>
   <i type="logical" name="LRPA"> F  </i>
   <i type="logical" name="LNABLA"> F  </i>
   <i type="logical" name="LVEL"> F  </i>
   <i type="int" name="KINTER">     0</i>
   <i name="CSHIFT">      0.10000000</i>
   <i name="OMEGAMAX">     -1.00000000</i>
   <i name="DEG_THRESHOLD">      0.00200000</i>
   <i name="RTIME">     -0.10000000</i>
   <i name="WPLASMAI">      0.00000000</i>
   <v name="DFIELD">      0.00000000      0.00000000      0.00000000</v>
   <v name="WPLASMA">      0.00000000      0.00000000      0.00000000      0.00000000      0.00000000      0.00000000      0.00000000      0.00000000      0.00000000</v>
  </separator>
  <separator name="orbital magnetization" >
   <i type="logical" name="NUCIND"> F  </i>
   <v name="MAGPOS">      0.00000000      0.00000000      0.00000000</v>
   <i type="logical" name="LNICSALL"> T  </i>
   <i type="logical" name="ORBITALMAG"> F  </i>
   <i type="logical" name="LMAGBLOCH"> F  </i>
   <i type="logical" name="LCHIMAG"> F  </i>
   <i type="logical" name="LGAUGE"> T  </i>
   <i type="int" name="MAGATOM">     0</i>
   <v name="MAGDIPOL">      0.00000000      0.00000000      0.00000000</v>
   <v name="AVECCONST">      0.00000000      0.00000000      0.00000000</v>
  </separator>
  <separator name="response functions" >
   <i type="logical" name="LADDER"> F  </i>
   <i type="logical" name="LRPAFORCE"> F  </i>
   <i type="logical" name="LFXC"> F  </i>
   <i type="logical" name="LHARTREE"> T  </i>
   <i type="int" name="IBSE">     0</i>
   <v type="int" name="KPOINT">    -1     0     0     0</v>
   <i type="logical" name="LTCTE"> F  </i>
   <i type="logical" name="LTETE"> F  </i>
   <i type="logical" name="LTRIPLET"> F  </i>
   <i type="logical" name="LFXCEPS"> F  </i>
   <i type="logical" name="LFXHEG"> F  </i>
   <i type="int" name="NATURALO">     2</i>
   <i type="logical" name="L2ORDER"> F  </i>
   <i type="logical" name="LMP2LT"> F  </i>
   <i type="logical" name="LUSEW"> F  </i>
   <i name="ENCUTGW">     -2.00000000</i>
   <i name="ENCUTGWSOFT">     -2.00000000</i>
   <i name="ENCUTLF">     -1.00000000</i>
   <i type="int" name="LMAXMP2">    -1</i>
   <i name="SCISSOR">      0.00000000</i>
   <i type="int" name="NOMEGA">     0</i>
   <i type="int" name="NOMEGAR">     0</i>
   <i type="int" name="NBANDSGW">    -1</i>
   <i type="int" name="NBANDSO">    -1</i>
   <i type="int" name="NBANDSV">    -1</i>
   <i type="int" name="NELM">   500</i>
   <i type="int" name="NELMHF">     1</i>
   <i type="int" name="DIM">     3</i>
   <i type="int" name="ANTIRES">     0</i>
   <i name="OMEGAMAX">    -30.00000000</i>
   <i name="OMEGAMIN">    -30.00000000</i>
   <i name="OMEGATL">   -200.00000000</i>
   <i type="int" name="OMEGAGRID">   140</i>
   <i name="CSHIFT">     -0.10000000</i>
   <i type="logical" name="SELFENERGY"> F  </i>
   <i type="logical" name="LSPECTRAL"> F  </i>
   <i type="logical" name="LSPECTRALGW"> F  </i>
   <i type="logical" name="LSINGLES"> F  </i>
   <i type="logical" name="LFERMIGW"> F  </i>
   <i type="logical" name="ODDONLYGW"> F  </i>
   <i type="logical" name="EVENONLYGW"> F  </i>
   <i type="int" name="NKREDLFX">     1</i>
   <i type="int" name="NKREDLFY">     1</i>
   <i type="int" name="NKREDLFZ">     1</i>
   <i type="int" name="MAXMEM">  2800</i>
   <i type="int" name="TELESCOPE">     0</i>
   <i type="int" name="TAUPAR">     1</i>
   <i type="int" name="OMEGAPAR">    -1</i>
   <i name="LAMBDA">      1.00000000</i>
  </separator>
  <separator name="External order field" >
   <i name="OFIELD_KAPPA">      0.00000000</i>
   <v name="OFIELD_K">      0.00000000      0.00000000      0.00000000</v>
   <i name="OFIELD_Q6_NEAR">      0.00000000</i>
   <i name="OFIELD_Q6_FAR">      0.00000000</i>
   <i name="OFIELD_A">      0.00000000</i>
  </separator>
 </parameters>
 <atominfo>
  <atoms>       2 </atoms>
  <types>       2 </types>
  <array name="atoms" >
   <dimension dim="1">ion</dimension>
   <field type="string">element</field>
   <field type="int">atomtype</field>
   <set>
    <rc><c>Eu</c><c>   1</c></rc>
    <rc><c>S </c><c>   2</c></rc>
   </set>
  </array>
  <array name="atomtypes" >
   <dimension dim="1">type</dimension>
   <field type="int">atomspertype</field>
   <field type="string">element</field>
   <field>mass</field>
   <field>valence</field>
   <field type="string">pseudopotential</field>
   <set>
    <rc><c>   1</c><c>Eu</c><c>    151.96500000</c><c>     17.00000000</c><c>  PAW_PBE Eu 23Dec2003                  </c></rc>
    <rc><c>   1</c><c>S </c><c>     32.06600000</c><c>      6.00000000</c><c>  PAW_PBE S 06Sep2000                   </c></rc>
   </set>
  </array>
 </atominfo>
 <structure name="initialpos" >
  <crystal>
   <varray name="basis" >
    <v>       0.00000000       2.98400000       2.98400000 </v>
    <v>       2.98400000       0.00000000       2.98400000 </v>
    <v>       2.98400000       2.98400000       0.00000000 </v>
   </varray>
   <i name="volume">     53.14059981 </i>
   <varray name="rec_basis" >
    <v>      -0.16756032       0.16756032       0.16756032 </v>
    <v>       0.16756032      -0.16756032       0.16756032 </v>
    <v>       0.16756032       0.16756032      -0.16756032 </v>
   </varray>
  </crystal>
  <varray name="positions" >
   <v>       0.00000000       0.00000000       0.00000000 </v>
   <v>       0.50000000       0.50000000       0.50000000 </v>
  </varray>
 </structure>
 <calculation>
  <scstep>
