unknown system                          
   1.00000000000000     
     0.000000    2.816500    2.816500
     2.816500    0.000000    2.816500
     2.816500    2.816500    0.000000
   Ge
     2
Direct
  0.000000  0.000000  0.000000
  0.250000  0.250000  0.250000
 
   48   48   48
 -.67135849132E+01 -.59336576652E+01 -.37079889917E+01 -.35769443974E+00 0.36490120806E+01
 0.77837085293E+01 0.11552086627E+02 0.14572712631E+02 0.16622274967E+02 0.17641949352E+02
 0.17713026854E+02 0.17017001246E+02 0.15793604065E+02 0.14303589377E+02 0.12797157399E+02
 0.11456816163E+02 0.10302494637E+02 0.93187660262E+01 0.84945508415E+01 0.78211818095E+01
 0.72900259156E+01 0.68915108115E+01 0.66157890126E+01 0.64542648791E+01 0.64011096278E+01
 0.64542660985E+01 0.66157903971E+01 0.68915110739E+01 0.72900245490E+01 0.78211795458E+01
 0.84945492470E+01 0.93187664238E+01 0.10302497112E+02 0.11456819251E+02 0.12797158815E+02
 0.14303587549E+02 0.15793599576E+02 0.17016997137E+02 0.17713027372E+02 0.17641957777E+02
 0.16622291700E+02 0.14572734582E+02 0.11552108311E+02 0.77837243419E+01 0.36490187871E+01
 -.35769620919E+00 -.37079950851E+01 -.59336626110E+01 -.59336576652E+01 -.44504908669E+01
 -.16923159299E+01 0.19613812177E+01 0.60274215546E+01 0.10004106552E+02 0.13454571708E+02
 0.16068657477E+02 0.17691401828E+02 0.18318573590E+02 0.18069446406E+02 0.17149461031E+02
 0.15811575363E+02 0.14319827263E+02 0.12911433257E+02 0.11684059790E+02 0.10626075266E+02
 0.97262237347E+01 0.89770269784E+01 0.83720090995E+01 0.79036778954E+01 0.75633387605E+01
 0.73423369223E+01 0.72337477952E+01 0.72337483555E+01 0.73423380721E+01 0.75633393903E+01
 0.79036771768E+01 0.83720070747E+01 0.89770244490E+01 0.97262218467E+01 0.10626074878E+02
 0.11684060902E+02 0.12911434771E+02 0.14319827646E+02 0.15811573850E+02 0.17149458630E+02
 0.18069445706E+02 0.18318577515E+02 0.17691412075E+02 0.16068673612E+02 0.13454591328E+02
 0.10004126368E+02 0.60274390080E+01 0.19613950676E+01 -.16923058407E+01 -.44504845586E+01
 -.59336554835E+01 -.37079889917E+01 -.16923159299E+01 0.13627019507E+01 0.50546338732E+01
 0.89196394774E+01 0.12509740458E+02 0.15461240956E+02 0.17539563971E+02 0.18654579794E+02
 0.18850329065E+02 0.18278326738E+02 0.17162972447E+02 0.15764076953E+02 0.14339086330E+02
 0.13065518451E+02 0.11956463904E+02 0.11000428862E+02 0.10190709257E+02 0.95228493679E+01
 0.89918233788E+01 0.85908568702E+01 0.83120972501E+01 0.81482574563E+01 0.80942497849E+01
 0.81482581250E+01 0.83120980578E+01 0.85908570542E+01 0.89918223764E+01 0.95228471739E+01
 0.10190706416E+02 0.11000426242E+02 0.11956462264E+02 0.13065518102E+02 0.14339086987E+02
 0.15764077929E+02 0.17162973097E+02 0.18278327067E+02 0.18850329978E+02 0.18654582751E+02
 0.17539570117E+02 0.15461250656E+02 0.12509753433E+02 0.89196552705E+01 0.50546518192E+01
 0.13627203804E+01 -.16923001438E+01 -.37079797229E+01 -.44119329951E+01 -.35769443974E+00
 0.19613812177E+01 0.50546338732E+01 0.85300360057E+01 0.11970272858E+02 0.14997874630E+02
 0.17327795909E+02 0.18798073774E+02 0.19376854566E+02 0.19150135286E+02 0.18296333788E+02
 0.17052479861E+02 0.15675521517E+02 0.14389712069E+02 0.13258908213E+02 0.12272445989E+02
 0.11424062455E+02 0.10710931507E+02 0.10130479905E+02 0.96782869589E+01 0.93479966669E+01
 0.91326905020E+01 0.90266376280E+01 0.90266379074E+01 0.91326912454E+01 0.93479974948E+01
 0.96782872278E+01 0.10130479009E+02 0.10710929271E+02 0.11424059236E+02 0.12272442547E+02
 0.13258905557E+02 0.14389711248E+02 0.15675523017E+02 0.17052483050E+02 0.18296337036E+02
 0.19150136930E+02 0.19376854010E+02 0.18798071860E+02 0.17327794430E+02 0.14997875747E+02
 0.11970278527E+02 0.85300471826E+01 0.50546495538E+01 0.19613979885E+01 -.35768141746E+00
 -.15995799184E+01 -.15995848417E+01 0.36490120806E+01 0.60274215546E+01 0.89196394774E+01
 0.11970272858E+02 0.14825368996E+02 0.17184040348E+02 0.18837354166E+02 0.19689269790E+02
 0.19759354148E+02 0.19169748845E+02 0.18119321952E+02 0.16848092349E+02 0.15593823307E+02
 0.14475506878E+02 0.13489634951E+02 0.12630258461E+02 0.11895697413E+02 0.11285474753E+02
 0.10797548557E+02 0.10427432946E+02 0.10169134395E+02 0.10016873723E+02 0.99666003760E+01
 0.10016874360E+02 0.10169135462E+02 0.10427434017E+02 0.10797549039E+02 0.11285473969E+02
 0.11895695006E+02 0.12630254717E+02 0.13489630942E+02 0.14475504266E+02 0.15593823644E+02
 0.16848096044E+02 0.18119327633E+02 0.19169753782E+02 0.19759355529E+02 0.19689266263E+02
 0.18837346722E+02 0.17184032069E+02 0.14825363709E+02 0.11970273465E+02 0.89196466210E+01
 0.60274330530E+01 0.36490237636E+01 0.20865835007E+01 0.15421302978E+01 0.20865761782E+01
 0.77837085293E+01 0.10004106552E+02 0.12509740458E+02 0.14997874630E+02 0.17184040348E+02
 0.18841726125E+02 0.19831466651E+02 0.20115915100E+02 0.19759740136E+02 0.18914457889E+02
 0.17789640905E+02 0.16614156850E+02 0.15545429720E+02 0.14594611751E+02 0.13756162804E+02
 0.13029120786E+02 0.12414537483E+02 0.11912392976E+02 0.11520044079E+02 0.11232595671E+02
 0.11044162157E+02 0.10950758570E+02 0.10950758962E+02 0.11044163154E+02 0.11232596858E+02
 0.11520044993E+02 0.11912393108E+02 0.12414536211E+02 0.13029117740E+02 0.13756158533E+02
 0.14594607871E+02 0.15545428204E+02 0.16614159085E+02 0.17789646785E+02 0.18914465422E+02
 0.19759746029E+02 0.20115916206E+02 0.19831461699E+02 0.18841716653E+02 0.17184030140E+02
 0.14997867811E+02 0.12509739591E+02 0.10004111563E+02 0.77837167750E+01 0.61254682309E+01
 0.52397207001E+01 0.52397177536E+01 0.61254608189E+01 0.11552086627E+02 0.13454571708E+02
 0.15461240956E+02 0.17327795909E+02 0.18837354166E+02 0.19831466651E+02 0.20232866268E+02
 0.20056212035E+02 0.19404088216E+02 0.18447333951E+02 0.17391949909E+02 0.16409960642E+02
 0.15529573459E+02 0.14745893672E+02 0.14058393152E+02 0.13469033332E+02 0.12979192155E+02
 0.12586245125E+02 0.12283051474E+02 0.12066153478E+02 0.11935352922E+02 0.11891584576E+02
 0.11935353517E+02 0.12066154355E+02 0.12283052148E+02 0.12586245041E+02 0.12979190825E+02
 0.13469030536E+02 0.14058389017E+02 0.14745889005E+02 0.15529569960E+02 0.16409960142E+02
 0.17391953434E+02 0.18447341042E+02 0.19404096728E+02 0.20056218972E+02 0.20232869110E+02
 0.19831464572E+02 0.18837348442E+02 0.17327789506E+02 0.15461237152E+02 0.13454572460E+02
 0.11552091564E+02 0.99908264612E+01 0.89674005272E+01 0.86112282614E+01 0.89673960026E+01
 0.99908199539E+01 0.14572712631E+02 0.16068657477E+02 0.17539563971E+02 0.18798073774E+02
 0.19689269790E+02 0.20115915100E+02 0.20056212035E+02 0.19569301426E+02 0.18785220371E+02
 0.17879420554E+02 0.17018146123E+02 0.16241456737E+02 0.15545429720E+02 0.14929844409E+02
 0.14397037049E+02 0.13947583939E+02 0.13572250687E+02 0.13265153789E+02 0.13027573523E+02
 0.12864457477E+02 0.12781207761E+02 0.12781207907E+02 0.12864457752E+02 0.13027573473E+02
 0.13265152857E+02 0.13572248415E+02 0.13947580192E+02 0.14397032087E+02 0.14929838842E+02
 0.15545424369E+02 0.16241453051E+02 0.17018145643E+02 0.17879423980E+02 0.18785227233E+02
 0.19569310181E+02 0.20056220792E+02 0.20115922170E+02 0.19689274206E+02 0.18798075589E+02
 0.17539564454E+02 0.16068658627E+02 0.14572715801E+02 0.13243606562E+02 0.12251222727E+02
 0.11721587501E+02 0.11721585652E+02 0.12251218226E+02 0.13243601747E+02 0.16622274967E+02
 0.17691401828E+02 0.18654579794E+02 0.19376854566E+02 0.19759354148E+02 0.19759740136E+02
 0.19404088216E+02 0.18785220371E+02 0.18045460401E+02 0.17332277476E+02 0.16687331049E+02
 0.16107822204E+02 0.15593823307E+02 0.15147602570E+02 0.14763258374E+02 0.14425399985E+02
 0.14129996070E+02 0.13882775496E+02 0.13694362566E+02 0.13575849917E+02 0.13535359212E+02
 0.13575849866E+02 0.13694361956E+02 0.13882773642E+02 0.14129992542E+02 0.14425394836E+02
 0.14763252004E+02 0.15147595482E+02 0.15593816218E+02 0.16107815838E+02 0.16687326425E+02
 0.17332275802E+02 0.18045462242E+02 0.18785225713E+02 0.19404096402E+02 0.19759750309E+02
 0.19759365133E+02 0.19376865039E+02 0.18654588541E+02 0.17691408312E+02 0.16622279669E+02
 0.15594805512E+02 0.14747282068E+02 0.14190907523E+02 0.13997236367E+02 0.14190905685E+02
 0.14747279023E+02 0.15594801776E+02 0.17641949352E+02 0.18318573590E+02 0.18850329065E+02
 0.19150135286E+02 0.19169748845E+02 0.18914457889E+02 0.18447333951E+02 0.17879420554E+02
 0.17332277476E+02 0.16839199342E+02 0.16398285607E+02 0.16009923813E+02 0.15675521517E+02
 0.15380104891E+02 0.15102656167E+02 0.14838884557E+02 0.14597671847E+02 0.14394943376E+02
 0.14247898706E+02 0.14170508299E+02 0.14170508241E+02 0.14247898128E+02 0.14394941469E+02
 0.14597667891E+02 0.14838878488E+02 0.15102648565E+02 0.15380096609E+02 0.15675513087E+02
 0.16009915761E+02 0.16398278337E+02 0.16839193447E+02 0.17332273966E+02 0.17879420051E+02
 0.18447336798E+02 0.18914463940E+02 0.19169757865E+02 0.19150146552E+02 0.18850341147E+02
 0.18318584587E+02 0.17641957540E+02 0.16926890776E+02 0.16280119180E+02 0.15793353141E+02
 0.15532747828E+02 0.15532747691E+02 0.15793352425E+02 0.16280116994E+02 0.16926885929E+02
 0.17713026854E+02 0.18069446406E+02 0.18278326738E+02 0.18296333788E+02 0.18119321952E+02
 0.17789640905E+02 0.17391949909E+02 0.17018146123E+02 0.16687331049E+02 0.16398285607E+02
 0.16151694221E+02 0.15947933923E+02 0.15764076953E+02 0.15571783911E+02 0.15363537953E+02
 0.15149052361E+02 0.14948205366E+02 0.14783876102E+02 0.14676210652E+02 0.14638741214E+02
 0.14676210395E+02 0.14783874924E+02 0.14948202373E+02 0.15149046985E+02 0.15363530437E+02
 0.15571775249E+02 0.15764068234E+02 0.15947925544E+02 0.16151686245E+02 0.16398278080E+02
 0.16687324296E+02 0.17018141107E+02 0.17391947133E+02 0.17789640699E+02 0.18119324162E+02
 0.18296338401E+02 0.18278333490E+02 0.18069454295E+02 0.17713034302E+02 0.17277161616E+02
 0.16838445658E+02 0.16468104975E+02 0.16222255511E+02 0.16136291888E+02 0.16222255742E+02
 0.16468104406E+02 0.16838442950E+02 0.17277156201E+02 0.17017001246E+02 0.17149461031E+02
 0.17162972447E+02 0.17052479861E+02 0.16848092349E+02 0.16614156850E+02 0.16409960642E+02
 0.16241456737E+02 0.16107822204E+02 0.16009923813E+02 0.15947933923E+02 0.15894392713E+02
 0.15811575363E+02 0.15685256049E+02 0.15522724879E+02 0.15345445197E+02 0.15180658720E+02
 0.15054257282E+02 0.14985839661E+02 0.14985839637E+02 0.15054256944E+02 0.15180657286E+02
 0.15345441837E+02 0.15522719217E+02 0.15685248608E+02 0.15811567332E+02 0.15894385177E+02
 0.15947926971E+02 0.16009917129E+02 0.16107815551E+02 0.16241450303E+02 0.16409955235E+02
 0.16614152702E+02 0.16848089382E+02 0.17052477650E+02 0.17162970882E+02 0.17149460487E+02
 0.17017001815E+02 0.16797982728E+02 0.16539949669E+02 0.16293417254E+02 0.16102442492E+02
 0.15998745270E+02 0.15998745369E+02 0.16102442503E+02 0.16293416685E+02 0.16539948479E+02
 0.16797981449E+02 0.15793604065E+02 0.15811575363E+02 0.15764076953E+02 0.15675521517E+02
 0.15593823307E+02 0.15545429720E+02 0.15529573459E+02 0.15545429720E+02 0.15593823307E+02
 0.15675521517E+02 0.15764076953E+02 0.15811575363E+02 0.15793604065E+02 0.15711124970E+02
 0.15583837840E+02 0.15441061078E+02 0.15313214419E+02 0.15225565772E+02 0.15194473947E+02
 0.15225565796E+02 0.15313214092E+02 0.15441059717E+02 0.15583834794E+02 0.15711120063E+02
 0.15793597930E+02 0.15811569170E+02 0.15764071626E+02 0.15675516965E+02 0.15593819031E+02
 0.15545425236E+02 0.15529568743E+02 0.15545425236E+02 0.15593819031E+02 0.15675516965E+02
 0.15764071626E+02 0.15811569170E+02 0.15793597930E+02 0.15711120063E+02 0.15583834794E+02
 0.15441059717E+02 0.15313214092E+02 0.15225565796E+02 0.15194473947E+02 0.15225565772E+02
 0.15313214419E+02 0.15441061078E+02 0.15583837840E+02 0.15711124970E+02 0.14303589377E+02
 0.14319827263E+02 0.14339086330E+02 0.14389712069E+02 0.14475506878E+02 0.14594611751E+02
 0.14745893672E+02 0.14929844409E+02 0.15147602570E+02 0.15380104891E+02 0.15571783911E+02
 0.15685256049E+02 0.15711124970E+02 0.15663227141E+02 0.15569677710E+02 0.15463304225E+02
 0.15373953934E+02 0.15323552372E+02 0.15323552273E+02 0.15373953662E+02 0.15463303629E+02
 0.15569676433E+02 0.15663224694E+02 0.15711121241E+02 0.15685251575E+02 0.15571779788E+02
 0.15380101945E+02 0.15147600758E+02 0.14929843206E+02 0.14745892302E+02 0.14594609885E+02
 0.14475504469E+02 0.14389709068E+02 0.14339082194E+02 0.14319821699E+02 0.14303582625E+02
 0.14267574508E+02 0.14206825491E+02 0.14129551157E+02 0.14050934605E+02 0.13987334037E+02
 0.13951917894E+02 0.13951917642E+02 0.13987333851E+02 0.14050935629E+02 0.14129554454E+02
 0.14206831130E+02 0.14267581490E+02 0.12797157399E+02 0.12911433257E+02 0.13065518451E+02
 0.13258908213E+02 0.13489634951E+02 0.13756162804E+02 0.14058393152E+02 0.14397037049E+02
 0.14763258374E+02 0.15102656167E+02 0.15363537953E+02 0.15522724879E+02 0.15583837840E+02
 0.15569677710E+02 0.15512366272E+02 0.15444399906E+02 0.15392297018E+02 0.15373000847E+02
 0.15392296192E+02 0.15444398659E+02 0.15512364926E+02 0.15569676220E+02 0.15583835789E+02
 0.15522721991E+02 0.15363534558E+02 0.15102653297E+02 0.14763256928E+02 0.14397037332E+02
 0.14058394808E+02 0.13756164855E+02 0.13489636655E+02 0.13258908861E+02 0.13065517863E+02
 0.12911431276E+02 0.12797154117E+02 0.12716148892E+02 0.12649818672E+02 0.12587639986E+02
 0.12528999583E+02 0.12479206941E+02 0.12445448799E+02 0.12433474256E+02 0.12445447603E+02
 0.12479205644E+02 0.12528999545E+02 0.12587641849E+02 0.12649822014E+02 0.12716152724E+02
 0.11456816163E+02 0.11684059790E+02 0.11956463904E+02 0.12272445989E+02 0.12630258461E+02
 0.13029120786E+02 0.13469033332E+02 0.13947583939E+02 0.14425399985E+02 0.14838884557E+02
 0.15149052361E+02 0.15345445197E+02 0.15441061078E+02 0.15463304225E+02 0.15444399906E+02
 0.15413693382E+02 0.15392722930E+02 0.15392721970E+02 0.15413690962E+02 0.15444397074E+02
 0.15463301786E+02 0.15441059114E+02 0.15345443094E+02 0.15149049527E+02 0.14838881051E+02
 0.14425396838E+02 0.13947582314E+02 0.13469034247E+02 0.13029124249E+02 0.12630263454E+02
 0.12272451071E+02 0.11956467639E+02 0.11684061660E+02 0.11456816600E+02 0.11274567932E+02
 0.11134396512E+02 0.11030217848E+02 0.10951659735E+02 0.10892275815E+02 0.10851112138E+02
 0.10829757373E+02 0.10829756087E+02 0.10851108878E+02 0.10892271943E+02 0.10951656614E+02
 0.11030216144E+02 0.11134396111E+02 0.11274567990E+02 0.10302494637E+02 0.10626075266E+02
 0.11000428862E+02 0.11424062455E+02 0.11895697413E+02 0.12414537483E+02 0.12979192155E+02
 0.13572250687E+02 0.14129996070E+02 0.14597671847E+02 0.14948205366E+02 0.15180658720E+02
 0.15313214419E+02 0.15373953934E+02 0.15392297018E+02 0.15392722930E+02 0.15391053310E+02
 0.15392720054E+02 0.15392292577E+02 0.15373949652E+02 0.15313211254E+02 0.15180656465E+02
 0.14948203021E+02 0.14597668404E+02 0.14129991391E+02 0.13572245730E+02 0.12979188577E+02
 0.12414537075E+02 0.11895700728E+02 0.11424068556E+02 0.11000435701E+02 0.10626080886E+02
 0.10302498153E+02 0.10030276682E+02 0.98080093268E+01 0.96319912558E+01 0.94969425299E+01
 0.93973697075E+01 0.93288400942E+01 0.92885214800E+01 0.92751538753E+01 0.92885184291E+01
 0.93288349776E+01 0.93973640524E+01 0.94969377545E+01 0.96319880443E+01 0.98080073402E+01
 0.10030274668E+02 0.93187660262E+01 0.97262237347E+01 0.10190709257E+02 0.10710931507E+02
 0.11285474753E+02 0.11912392976E+02 0.12586245125E+02 0.13265153789E+02 0.13882775496E+02
 0.14394943376E+02 0.14783876102E+02 0.15054257282E+02 0.15225565772E+02 0.15323552372E+02
 0.15373000847E+02 0.15392721970E+02 0.15392720054E+02 0.15372995991E+02 0.15323546686E+02
 0.15225561162E+02 0.15054254451E+02 0.14783874343E+02 0.14394941199E+02 0.13882771541E+02
 0.13265147699E+02 0.12586237753E+02 0.11912386433E+02 0.11285471293E+02 0.10710932368E+02
 0.10190713872E+02 0.97262300003E+01 0.93187716588E+01 0.89689476541E+01 0.86758148707E+01
 0.84364313913E+01 0.82462364184E+01 0.81001255092E+01 0.79936723442E+01 0.79238907851E+01
 0.78892639645E+01 0.78892626505E+01 0.79238873053E+01 0.79936678411E+01 0.81001214251E+01
 0.82462336326E+01 0.84364296422E+01 0.86758128379E+01 0.89689439770E+01 0.84945508415E+01
 0.89770269784E+01 0.95228493679E+01 0.10130479905E+02 0.10797548557E+02 0.11520044079E+02
 0.12283051474E+02 0.13027573523E+02 0.13694362566E+02 0.14247898706E+02 0.14676210652E+02
 0.14985839661E+02 0.15194473947E+02 0.15323552273E+02 0.15392296192E+02 0.15413690962E+02
 0.15392292577E+02 0.15323546686E+02 0.15194468659E+02 0.14985836335E+02 0.14676209455E+02
 0.14247898412E+02 0.13694361303E+02 0.13027569842E+02 0.12283044850E+02 0.11520035270E+02
 0.10797539600E+02 0.10130473108E+02 0.95228465259E+01 0.89770281330E+01 0.84945544048E+01
 0.80760324531E+01 0.77205791358E+01 0.74254292165E+01 0.71861678522E+01 0.69976212649E+01
 0.68550227391E+01 0.67549021796E+01 0.66953253005E+01 0.66755225522E+01 0.66953245857E+01
 0.67549011878E+01 0.68550220689E+01 0.69976211893E+01 0.71861679744E+01 0.74254285771E+01
 0.77205768662E+01 0.80760287628E+01 0.78211818095E+01 0.83720090995E+01 0.89918233788E+01
 0.96782869589E+01 0.10427432946E+02 0.11232595671E+02 0.12066153478E+02 0.12864457477E+02
 0.13575849917E+02 0.14170508299E+02 0.14638741214E+02 0.14985839637E+02 0.15225565796E+02
 0.15373953662E+02 0.15444398659E+02 0.15444397074E+02 0.15373949652E+02 0.15225561162E+02
 0.14985836335E+02 0.14638740265E+02 0.14170509349E+02 0.13575851482E+02 0.12864457830E+02
 0.12066151385E+02 0.11232590509E+02 0.10427425122E+02 0.96782777515E+01 0.89918147824E+01
 0.83720030358E+01 0.78211791589E+01 0.73402616872E+01 0.69284640428E+01 0.65830296264E+01
 0.62994316484E+01 0.60721625021E+01 0.58958616749E+01 0.57663110202E+01 0.56808862849E+01
 0.56383651633E+01 0.56383658584E+01 0.56808882785E+01 0.57663139559E+01 0.58958648816E+01
 0.60721650440E+01 0.62994327353E+01 0.65830291116E+01 0.69284628583E+01 0.73402615577E+01
 0.72900259156E+01 0.79036778954E+01 0.85908568702E+01 0.93479966669E+01 0.10169134395E+02
 0.11044162157E+02 0.11935352922E+02 0.12781207761E+02 0.13535359212E+02 0.14170508241E+02
 0.14676210395E+02 0.15054256944E+02 0.15313214092E+02 0.15463303629E+02 0.15512364926E+02
 0.15463301786E+02 0.15313211254E+02 0.15054254451E+02 0.14676209455E+02 0.14170509349E+02
 0.13535361886E+02 0.12781210883E+02 0.11935355343E+02 0.11044162803E+02 0.10169132638E+02
 0.93479921761E+01 0.85908500690E+01 0.79036701020E+01 0.72900189879E+01 0.67514771544E+01
 0.62875627683E+01 0.58955998282E+01 0.55709373016E+01 0.53076853791E+01 0.50998129422E+01
 0.49422202302E+01 0.48313837331E+01 0.47653825732E+01 0.47434425051E+01 0.47653853107E+01
 0.48313883772E+01 0.49422253539E+01 0.50998170677E+01 0.53076876024E+01 0.55709378630E+01
 0.58956001216E+01 0.62875646046E+01 0.67514816732E+01 0.68915108115E+01 0.75633387605E+01
 0.83120972501E+01 0.91326905020E+01 0.10016873723E+02 0.10950758570E+02 0.11891584576E+02
 0.12781207907E+02 0.13575849866E+02 0.14247898128E+02 0.14783874924E+02 0.15180657286E+02
 0.15441059717E+02 0.15569676433E+02 0.15569676220E+02 0.15441059114E+02 0.15180656465E+02
 0.14783874343E+02 0.14247898412E+02 0.13575851482E+02 0.12781210883E+02 0.11891588576E+02
 0.10950762805E+02 0.10016877367E+02 0.91326926654E+01 0.83120971017E+01 0.75633360567E+01
 0.68915062337E+01 0.62991211066E+01 0.57862102075E+01 0.53503155686E+01 0.49867554654E+01
 0.46893359176E+01 0.44514173310E+01 0.42670277284E+01 0.41316568473E+01 0.40424983551E+01
 0.39981669121E+01 0.39981684248E+01 0.40425022819E+01 0.41316616569E+01 0.42670316915E+01
 0.44514194235E+01 0.46893363857E+01 0.49867556752E+01 0.53503170781E+01 0.57862137477E+01
 0.62991259758E+01 0.66157890126E+01 0.73423369223E+01 0.81482574563E+01 0.90266376280E+01
 0.99666003760E+01 0.10950758962E+02 0.11935353517E+02 0.12864457752E+02 0.13694361956E+02
 0.14394941469E+02 0.14948202373E+02 0.15345441837E+02 0.15583834794E+02 0.15663224694E+02
 0.15583835789E+02 0.15345443094E+02 0.14948203021E+02 0.14394941199E+02 0.13694361303E+02
 0.12864457830E+02 0.11935355343E+02 0.10950762805E+02 0.99666057758E+01 0.90266435130E+01
 0.81482625766E+01 0.73423402296E+01 0.66157900151E+01 0.59722803714E+01 0.54125136208E+01
 0.49343655435E+01 0.45332208485E+01 0.42026868367E+01 0.39356334772E+01 0.37253145264E+01
 0.35662549614E+01 0.34546703327E+01 0.33883773007E+01 0.33663712754E+01 0.33883793637E+01
 0.34546733380E+01 0.35662573508E+01 0.37253152339E+01 0.39356326072E+01 0.42026855099E+01
 0.45332203700E+01 0.49343664237E+01 0.54125151854E+01 0.59722812507E+01 0.64542648791E+01
 0.72337477952E+01 0.80942497849E+01 0.90266379074E+01 0.10016874360E+02 0.11044163154E+02
 0.12066154355E+02 0.13027573473E+02 0.13882773642E+02 0.14597667891E+02 0.15149046985E+02
 0.15522719217E+02 0.15711120063E+02 0.15711121241E+02 0.15522721991E+02 0.15149049527E+02
 0.14597668404E+02 0.13882771541E+02 0.13027569842E+02 0.12066151385E+02 0.11044162803E+02
 0.10016877367E+02 0.90266435130E+01 0.80942563271E+01 0.72337536664E+01 0.64542690937E+01
 0.57608955684E+01 0.51551683406E+01 0.46353873049E+01 0.41970683317E+01 0.38336977894E+01
 0.35377638544E+01 0.33018684799E+01 0.31196576810E+01 0.29863612386E+01 0.28988751927E+01
 0.28554899796E+01 0.28554904234E+01 0.28988760818E+01 0.29863615633E+01 0.31196566070E+01
 0.33018659905E+01 0.35377607568E+01 0.38336951480E+01 0.41970667033E+01 0.46353863656E+01
 0.51551671741E+01 0.57608931617E+01 0.64011096278E+01 0.72337483555E+01 0.81482581250E+01
 0.91326912454E+01 0.10169135462E+02 0.11232596858E+02 0.12283052148E+02 0.13265152857E+02
 0.14129992542E+02 0.14838878488E+02 0.15363530437E+02 0.15685248608E+02 0.15793597930E+02
 0.15685251575E+02 0.15363534558E+02 0.14838881051E+02 0.14129991391E+02 0.13265147699E+02
 0.12283044850E+02 0.11232590509E+02 0.10169132638E+02 0.91326926654E+01 0.81482625766E+01
 0.72337536664E+01 0.64011139866E+01 0.56572757053E+01 0.50048468971E+01 0.44426632247E+01
 0.39664174801E+01 0.35695129700E+01 0.32441241575E+01 0.29823043152E+01 0.27769257800E+01
 0.26222830676E+01 0.25142998010E+01 0.24504061670E+01 0.24292466255E+01 0.24504057071E+01
 0.25142985273E+01 0.26222806500E+01 0.27769223345E+01 0.29823004663E+01 0.32441207399E+01
 0.35695105448E+01 0.39664160639E+01 0.44426622892E+01 0.50048455234E+01 0.56572730084E+01
 0.64542660985E+01 0.73423380721E+01 0.83120980578E+01 0.93479974948E+01 0.10427434017E+02
 0.11520044993E+02 0.12586245041E+02 0.13572248415E+02 0.14425394836E+02 0.15102648565E+02
 0.15571775249E+02 0.15811567332E+02 0.15811569170E+02 0.15571779788E+02 0.15102653297E+02
 0.14425396838E+02 0.13572245730E+02 0.12586237753E+02 0.11520035270E+02 0.10427425122E+02
 0.93479921761E+01 0.83120971017E+01 0.73423402296E+01 0.64542690937E+01 0.56572757053E+01
 0.49554452875E+01 0.43483567497E+01 0.38319533156E+01 0.33995704563E+01 0.30430891141E+01
 0.27540721513E+01 0.25247078628E+01 0.23484340241E+01 0.22202129318E+01 0.21365229828E+01
 0.20951899493E+01 0.20951893209E+01 0.21365211449E+01 0.22202100773E+01 0.23484306081E+01
 0.25247045432E+01 0.27540696337E+01 0.30430878568E+01 0.33995705157E+01 0.38319542253E+01
 0.43483575748E+01 0.49554449923E+01 0.56572737518E+01 0.66157903971E+01 0.75633393903E+01
 0.85908570542E+01 0.96782872278E+01 0.10797549039E+02 0.11912393108E+02 0.12979190825E+02
 0.13947580192E+02 0.14763252004E+02 0.15380096609E+02 0.15764068234E+02 0.15894385177E+02
 0.15764071626E+02 0.15380101945E+02 0.14763256928E+02 0.13947582314E+02 0.12979188577E+02
 0.11912386433E+02 0.10797539600E+02 0.96782777515E+01 0.85908500690E+01 0.75633360567E+01
 0.66157900151E+01 0.57608955684E+01 0.50048468971E+01 0.43483567497E+01 0.37877984018E+01
 0.33164814820E+01 0.29259815949E+01 0.26073717467E+01 0.23521985089E+01 0.21531130619E+01
 0.20041673554E+01 0.19008667233E+01 0.18400996736E+01 0.18200434831E+01 0.18400982241E+01
 0.19008643232E+01 0.20041648081E+01 0.21531111856E+01 0.23521978892E+01 0.26073725792E+01
 0.29259836847E+01 0.33164842296E+01 0.37878009040E+01 0.43483581347E+01 0.50048468368E+01
 0.57608948423E+01 0.68915110739E+01 0.79036771768E+01 0.89918223764E+01 0.10130479009E+02
 0.11285473969E+02 0.12414536211E+02 0.13469030536E+02 0.14397032087E+02 0.15147595482E+02
 0.15675513087E+02 0.15947925544E+02 0.15947926971E+02 0.15675516965E+02 0.15147600758E+02
 0.14397037332E+02 0.13469034247E+02 0.12414537075E+02 0.11285471293E+02 0.10130473108E+02
 0.89918147824E+01 0.79036701020E+01 0.68915062337E+01 0.59722803714E+01 0.51551683406E+01
 0.44426632247E+01 0.38319533156E+01 0.33164814820E+01 0.28875309683E+01 0.25356425071E+01
 0.22516940284E+01 0.20275685286E+01 0.18564548878E+01 0.17329129310E+01 0.16528510378E+01
 0.16135154644E+01 0.16135148396E+01 0.16528495336E+01 0.17329114739E+01 0.18564544638E+01
 0.20275697120E+01 0.22516967259E+01 0.25356460807E+01 0.28875344852E+01 0.33164840922E+01
 0.38319545992E+01 0.44426635046E+01 0.51551688105E+01 0.59722825551E+01 0.72900245490E+01
 0.83720070747E+01 0.95228471739E+01 0.10710929271E+02 0.11895695006E+02 0.13029117740E+02
 0.14058389017E+02 0.14929838842E+02 0.15593816218E+02 0.16009915761E+02 0.16151686245E+02
 0.16009917129E+02 0.15593819031E+02 0.14929843206E+02 0.14058394808E+02 0.13029124249E+02
 0.11895700728E+02 0.10710932368E+02 0.95228465259E+01 0.83720030358E+01 0.72900189879E+01
 0.62991211066E+01 0.54125136208E+01 0.46353873049E+01 0.39664174801E+01 0.33995704563E+01
 0.29259815949E+01 0.25356425071E+01 0.22186831208E+01 0.19661553454E+01 0.17703731301E+01
 0.16249743916E+01 0.15248970574E+01 0.14664012843E+01 0.14471658156E+01 0.14664006820E+01
 0.15248965356E+01 0.16249748762E+01 0.17703751932E+01 0.19661588110E+01 0.22186870928E+01
 0.25356457386E+01 0.29259831392E+01 0.33995702269E+01 0.39664164864E+01 0.46353872686E+01
 0.54125159116E+01 0.62991257917E+01 0.78211795458E+01 0.89770244490E+01 0.10190706416E+02
 0.11424059236E+02 0.12630254717E+02 0.13756158533E+02 0.14745889005E+02 0.15545424369E+02
 0.16107815838E+02 0.16398278337E+02 0.16398278080E+02 0.16107815551E+02 0.15545425236E+02
 0.14745892302E+02 0.13756164855E+02 0.12630263454E+02 0.11424068556E+02 0.10190713872E+02
 0.89770281330E+01 0.78211791589E+01 0.67514771544E+01 0.57862102075E+01 0.49343655435E+01
 0.41970683317E+01 0.35695129700E+01 0.30430891141E+01 0.26073717467E+01 0.22516940284E+01
 0.19661553454E+01 0.17420904517E+01 0.15721703577E+01 0.14503636620E+01 0.13719409780E+01
 0.13335897930E+01 0.13335897371E+01 0.13719410911E+01 0.14503645377E+01 0.15721724163E+01
 0.17420935026E+01 0.19661585253E+01 0.22516961057E+01 0.26073718041E+01 0.30430871817E+01
 0.35695102954E+01 0.41970667840E+01 0.49343663678E+01 0.57862130712E+01 0.67514800466E+01
 0.84945492470E+01 0.97262218467E+01 0.11000426242E+02 0.12272442547E+02 0.13489630942E+02
 0.14594607871E+02 0.15529569960E+02 0.16241453051E+02 0.16687326425E+02 0.16839193447E+02
 0.16687324296E+02 0.16241450303E+02 0.15529568743E+02 0.14594609885E+02 0.13489636655E+02
 0.12272451071E+02 0.11000435701E+02 0.97262300003E+01 0.84945544048E+01 0.73402616872E+01
 0.62875627683E+01 0.53503155686E+01 0.45332208485E+01 0.38336977894E+01 0.32441241575E+01
 0.27540721513E+01 0.23521985089E+01 0.20275685286E+01 0.17703731301E+01 0.15721703577E+01
 0.14258823316E+01 0.13257712783E+01 0.12675201976E+01 0.12484135118E+01 0.12675205584E+01
 0.13257721879E+01 0.14258839314E+01 0.15721724293E+01 0.17703749669E+01 0.20275691456E+01
 0.23521972073E+01 0.27540690578E+01 0.32441204139E+01 0.38336949750E+01 0.45332199598E+01
 0.53503162443E+01 0.62875632646E+01 0.73402599245E+01 0.93187664238E+01 0.10626074878E+02
 0.11956462264E+02 0.13258905557E+02 0.14475504266E+02 0.15545428204E+02 0.16409960142E+02
 0.17018145643E+02 0.17332275802E+02 0.17332273966E+02 0.17018141107E+02 0.16409955235E+02
 0.15545425236E+02 0.14475504469E+02 0.13258908861E+02 0.11956467639E+02 0.10626080886E+02
 0.93187716588E+01 0.80760324531E+01 0.69284640428E+01 0.58955998282E+01 0.49867554654E+01
 0.42026868367E+01 0.35377638544E+01 0.29823043152E+01 0.25247078628E+01 0.21531130619E+01
 0.18564548878E+01 0.16249743916E+01 0.14503636620E+01 0.13257712783E+01 0.12458402674E+01
 0.12068391892E+01 0.12068394477E+01 0.12458409914E+01 0.13257723167E+01 0.14503646873E+01
 0.16249748860E+01 0.18564542444E+01 0.21531109363E+01 0.25247044952E+01 0.29823006148E+01
 0.35377609101E+01 0.42026852773E+01 0.49867550129E+01 0.58955993765E+01 0.69284624123E+01
 0.80760289489E+01 0.10302497112E+02 0.11684060902E+02 0.13065518102E+02 0.14389711248E+02
 0.15593823644E+02 0.16614159085E+02 0.17391953434E+02 0.17879423980E+02 0.18045462242E+02
 0.17879420051E+02 0.17391947133E+02 0.16614152702E+02 0.15593819031E+02 0.14389709068E+02
 0.13065517863E+02 0.11684061660E+02 0.10302498153E+02 0.89689476541E+01 0.77205791358E+01
 0.65830296264E+01 0.55709373016E+01 0.46893359176E+01 0.39356334772E+01 0.33018684799E+01
 0.27769257800E+01 0.23484340241E+01 0.20041673554E+01 0.17329129310E+01 0.15248970574E+01
 0.13719409780E+01 0.12675201976E+01 0.12068391892E+01 0.11869454853E+01 0.12068396153E+01
 0.12675207783E+01 0.13719412659E+01 0.15248965990E+01 0.17329114450E+01 0.20041649163E+01
 0.23484311169E+01 0.27769231677E+01 0.33018667840E+01 0.39356328595E+01 0.46893359926E+01
 0.55709374632E+01 0.65830294906E+01 0.77205785675E+01 0.89689467384E+01 0.11456819251E+02
 0.12911434771E+02 0.14339086987E+02 0.15675523017E+02 0.16848096044E+02 0.17789646785E+02
 0.18447341042E+02 0.18785227233E+02 0.18785225713E+02 0.18447336798E+02 0.17789640699E+02
 0.16848089382E+02 0.15675516965E+02 0.14339082194E+02 0.12911431276E+02 0.11456816600E+02
 0.10030276682E+02 0.86758148707E+01 0.74254292165E+01 0.62994316484E+01 0.53076853791E+01
 0.44514173310E+01 0.37253145264E+01 0.31196576810E+01 0.26222830676E+01 0.22202129318E+01
 0.19008667233E+01 0.16528510378E+01 0.14664012843E+01 0.13335897930E+01 0.12484135118E+01
 0.12068394477E+01 0.12068396153E+01 0.12484138267E+01 0.13335897775E+01 0.14664004777E+01
 0.16528492798E+01 0.19008643611E+01 0.22202107110E+01 0.26222818115E+01 0.31196577929E+01
 0.37253158106E+01 0.44514191144E+01 0.53076870549E+01 0.62994330732E+01 0.74254305782E+01