unknown system                          
   1.00000000000000     
     0.000000    2.816500    2.816500
     2.816500    0.000000    2.816500
     2.816500    2.816500    0.000000
   Ge
     2
Direct
  0.000000  0.000000  0.000000
  0.250000  0.250000  0.250000
 
   48   48   48
 -.74030872338E+01 -.66018510220E+01 -.43154074070E+01 -.87362374818E+00 0.32429416486E+01
 0.74927142758E+01 0.11370212805E+02 0.14486753767E+02 0.16616219832E+02 0.17700500329E+02
 0.17823296467E+02 0.17168328899E+02 0.15976156727E+02 0.14506728789E+02 0.13008426969E+02
 0.11662701319E+02 0.10491939666E+02 0.94840271822E+01 0.86311496557E+01 0.79277319804E+01
 0.73679145398E+01 0.69444883807E+01 0.66495198616E+01 0.64758460779E+01 0.64185376395E+01
 0.64758461313E+01 0.66495198720E+01 0.69444882980E+01 0.73679144289E+01 0.79277319272E+01
 0.86311496704E+01 0.94840272344E+01 0.10491939749E+02 0.11662701415E+02 0.13008426995E+02
 0.14506728672E+02 0.15976156527E+02 0.17168328777E+02 0.17823296497E+02 0.17700500414E+02
 0.16616219841E+02 0.14486753719E+02 0.11370212842E+02 0.74927144641E+01 0.32429418809E+01
 -.87362363403E+00 -.43154074497E+01 -.66018511079E+01 -.66018510220E+01 -.50805366262E+01
 -.22506886741E+01 0.14998335615E+01 0.56773262137E+01 0.97694076633E+01 0.13330227761E+02
 0.16043506669E+02 0.17751203280E+02 0.18448338128E+02 0.18254615770E+02 0.17376026905E+02
 0.16065592609E+02 0.14586870065E+02 0.13176499249E+02 0.11933644911E+02 0.10850105579E+02
 0.99181818250E+01 0.91339030820E+01 0.84940723845E+01 0.79940981592E+01 0.76277249076E+01
 0.73882263452E+01 0.72700347780E+01 0.72700348248E+01 0.73882264206E+01 0.76277249123E+01
 0.79940980969E+01 0.84940723321E+01 0.91339030623E+01 0.99181817988E+01 0.10850105554E+02
 0.11933644958E+02 0.13176499373E+02 0.14586870143E+02 0.16065592525E+02 0.17376026726E+02
 0.18254615700E+02 0.18448338259E+02 0.17751203397E+02 0.16043506353E+02 0.13330226792E+02
 0.97694064352E+01 0.56773257162E+01 0.14998347161E+01 -.22506859481E+01 -.50805337179E+01
 -.66018497696E+01 -.43154074070E+01 -.22506886741E+01 0.88110882112E+00 0.46707356447E+01
 0.86460796154E+01 0.12350609818E+02 0.15412937526E+02 0.17592442759E+02 0.18794876569E+02
 0.19061898970E+02 0.18543945912E+02 0.17465160921E+02 0.16085537991E+02 0.14662917357E+02
 0.13375987504E+02 0.12241048480E+02 0.11250328945E+02 0.10400945107E+02 0.96921701471E+01
 0.91224112449E+01 0.86878921286E+01 0.83832423635E+01 0.82030655005E+01 0.81434739822E+01
 0.82030655184E+01 0.83832424130E+01 0.86878921910E+01 0.91224112740E+01 0.96921701298E+01
 0.10400945075E+02 0.11250328917E+02 0.12241048448E+02 0.13375987493E+02 0.14662917416E+02
 0.16085538090E+02 0.17465160931E+02 0.18543945789E+02 0.19061898899E+02 0.18794876736E+02
 0.17592442946E+02 0.15412937148E+02 0.12350608602E+02 0.86460782466E+01 0.46707354690E+01
 0.88111064067E+00 -.22506855968E+01 -.43154050317E+01 -.50362154976E+01 -.87362374818E+00
 0.14998335615E+01 0.46707356447E+01 0.82421867371E+01 0.11790505342E+02 0.14930914719E+02
 0.17370924291E+02 0.18941828419E+02 0.19606420372E+02 0.19447139149E+02 0.18640698838E+02
 0.17423995516E+02 0.16054883765E+02 0.14759115843E+02 0.13603394336E+02 0.12580787274E+02
 0.11689023407E+02 0.10929350511E+02 0.10303108435E+02 0.98094310212E+01 0.94450331825E+01
 0.92054852521E+01 0.90868408713E+01 0.90868408557E+01 0.92054852413E+01 0.94450332203E+01
 0.98094310854E+01 0.10303108488E+02 0.10929350566E+02 0.11689023477E+02 0.12580787288E+02
 0.13603394230E+02 0.14759115701E+02 0.16054883742E+02 0.17423995602E+02 0.18640698836E+02
 0.19447138978E+02 0.19606420255E+02 0.18941828620E+02 0.17370924684E+02 0.14930914834E+02
 0.11790504915E+02 0.82421861092E+01 0.46707354741E+01 0.14998341291E+01 -.87362287571E+00
 -.21434664185E+01 -.21434668332E+01 0.32429416486E+01 0.56773262137E+01 0.86460796154E+01
 0.11790505342E+02 0.14751286771E+02 0.17220420802E+02 0.18980984495E+02 0.19929276635E+02
 0.20078710667E+02 0.19547577187E+02 0.18533367560E+02 0.17276728996E+02 0.16017197328E+02
 0.14876399393E+02 0.13854379948E+02 0.12949184468E+02 0.12163401645E+02 0.11500841122E+02
 0.10963519068E+02 0.10550605259E+02 0.10259231365E+02 0.10086065070E+02 0.10028639334E+02
 0.10086065079E+02 0.10259231341E+02 0.10550605205E+02 0.10963519068E+02 0.11500841255E+02
 0.12163401871E+02 0.12949184635E+02 0.13854379928E+02 0.14876399207E+02 0.16017197127E+02
 0.17276728908E+02 0.18533367559E+02 0.19547577122E+02 0.20078710447E+02 0.19929276384E+02
 0.18980984479E+02 0.17220421169E+02 0.14751287356E+02 0.11790505768E+02 0.86460796111E+01
 0.56773258168E+01 0.32429411351E+01 0.16466299362E+01 0.10908695368E+01 0.16466302737E+01
 0.74927142758E+01 0.97694076633E+01 0.12350609818E+02 0.14930914719E+02 0.17220420802E+02
 0.18984881868E+02 0.20076054218E+02 0.20448418103E+02 0.20160555310E+02 0.19360789417E+02
 0.18258295076E+02 0.17083466630E+02 0.15996206244E+02 0.15010894522E+02 0.14125808770E+02
 0.13344268884E+02 0.12671830716E+02 0.12112925276E+02 0.11669091547E+02 0.11339190307E+02
 0.11120504275E+02 0.11011363535E+02 0.11011363570E+02 0.11120504296E+02 0.11339190202E+02
 0.11669091384E+02 0.12112925261E+02 0.12671830951E+02 0.13344269240E+02 0.14125809021E+02
 0.15010894540E+02 0.15996206068E+02 0.17083466405E+02 0.18258294949E+02 0.19360789421E+02
 0.20160555295E+02 0.20448417851E+02 0.20076053699E+02 0.18984881354E+02 0.17220420659E+02
 0.14930915078E+02 0.12350610493E+02 0.97694083605E+01 0.74927148124E+01 0.57977947516E+01
 0.48941341879E+01 0.48941340787E+01 0.57977944261E+01 0.11370212805E+02 0.13330227761E+02
 0.15412937526E+02 0.17370924291E+02 0.18980984495E+02 0.20076054218E+02 0.20569678024E+02
 0.20468668798E+02 0.19870521893E+02 0.18944182208E+02 0.17896354994E+02 0.16901178268E+02
 0.15989653142E+02 0.15160352168E+02 0.14416850632E+02 0.13765641439E+02 0.13212783493E+02
 0.12760271938E+02 0.12405383227E+02 0.12148513001E+02 0.11992455869E+02 0.11940050391E+02
 0.11992455904E+02 0.12148512945E+02 0.12405383010E+02 0.12760271690E+02 0.13212783464E+02
 0.13765641755E+02 0.14416851145E+02 0.15160352564E+02 0.15989653206E+02 0.16901178052E+02
 0.17896354739E+02 0.18944182127E+02 0.19870522010E+02 0.20468668943E+02 0.20569677946E+02
 0.20076053735E+02 0.18980983631E+02 0.17370923367E+02 0.15412937089E+02 0.13330228289E+02
 0.11370214321E+02 0.97700444712E+01 0.87246173015E+01 0.83613890947E+01 0.87246159888E+01
 0.97700425741E+01 0.14486753767E+02 0.16043506669E+02 0.17592442759E+02 0.18941828419E+02
 0.19929276635E+02 0.20448418103E+02 0.20468668798E+02 0.20042552087E+02 0.19296626466E+02
 0.18405842682E+02 0.17537857665E+02 0.16734963951E+02 0.15996206244E+02 0.15325109342E+02
 0.14728368610E+02 0.14211297674E+02 0.13769686254E+02 0.13402601894E+02 0.13115754136E+02
 0.12917679524E+02 0.12816300548E+02 0.12816300568E+02 0.12917679513E+02 0.13115753955E+02
 0.13402601515E+02 0.13769685887E+02 0.14211297651E+02 0.14728369061E+02 0.15325110009E+02
 0.15996206687E+02 0.16734963952E+02 0.17537857374E+02 0.18405842394E+02 0.19296626371E+02
 0.20042552247E+02 0.20468669196E+02 0.20448418547E+02 0.19929276689E+02 0.18941827690E+02
 0.17592441412E+02 0.16043505561E+02 0.14486753834E+02 0.13115008385E+02 0.12096532945E+02
 0.11554767626E+02 0.11554766839E+02 0.12096531199E+02 0.13115007007E+02 0.16616219832E+02
 0.17751203280E+02 0.18794876569E+02 0.19606420372E+02 0.20078710667E+02 0.20160555310E+02
 0.19870521893E+02 0.19296626466E+02 0.18579385866E+02 0.17866713907E+02 0.17201797019E+02
 0.16584188024E+02 0.16017197328E+02 0.15507096204E+02 0.15052641595E+02 0.14643709300E+02
 0.14281621480E+02 0.13977017863E+02 0.13744597231E+02 0.13598458886E+02 0.13548555077E+02
 0.13598458976E+02 0.13744597202E+02 0.13977017508E+02 0.14281620862E+02 0.14643708799E+02
 0.15052641616E+02 0.15507096791E+02 0.16017198088E+02 0.16584188475E+02 0.17201796993E+02
 0.17866713577E+02 0.18579385479E+02 0.19296626182E+02 0.19870521870E+02 0.20160555726E+02
 0.20078711480E+02 0.19606421108E+02 0.18794876586E+02 0.17751202388E+02 0.16616218584E+02
 0.15540077778E+02 0.14660568885E+02 0.14086603146E+02 0.13887390810E+02 0.14086602859E+02
 0.14660568906E+02 0.15540078561E+02 0.17700500329E+02 0.18448338128E+02 0.19061898970E+02
 0.19447139149E+02 0.19547577187E+02 0.19360789417E+02 0.18944182208E+02 0.18405842682E+02
 0.17866713907E+02 0.17360806347E+02 0.16887876784E+02 0.16450933157E+02 0.16054883765E+02
 0.15689173014E+02 0.15338101339E+02 0.15003010570E+02 0.14698082960E+02 0.14443702206E+02
 0.14260415250E+02 0.14164372371E+02 0.14164372520E+02 0.14260415504E+02 0.14443702162E+02
 0.14698082394E+02 0.15003009700E+02 0.15338100716E+02 0.15689173086E+02 0.16054884498E+02
 0.16450934062E+02 0.16887877336E+02 0.17360806380E+02 0.17866713597E+02 0.18405842230E+02
 0.18944181677E+02 0.19360788923E+02 0.19547577075E+02 0.19447139747E+02 0.19061900117E+02
 0.18448339105E+02 0.17700500408E+02 0.16929143017E+02 0.16242304205E+02 0.15730648568E+02
 0.15458332596E+02 0.15458333024E+02 0.15730649714E+02 0.16242305605E+02 0.16929143951E+02
 0.17823296467E+02 0.18254615770E+02 0.18543945912E+02 0.18640698838E+02 0.18533367560E+02
 0.18258295076E+02 0.17896354994E+02 0.17537857665E+02 0.17201797019E+02 0.16887876784E+02
 0.16598714585E+02 0.16337576772E+02 0.16085537991E+02 0.15819441683E+02 0.15537542057E+02
 0.15255155844E+02 0.14996935456E+02 0.14789341497E+02 0.14654869364E+02 0.14608331216E+02
 0.14654869792E+02 0.14789341947E+02 0.14996935419E+02 0.15255155117E+02 0.15537540979E+02
 0.15819440943E+02 0.16085538104E+02 0.16337577648E+02 0.16598715616E+02 0.16887877396E+02
 0.17201797125E+02 0.17537857532E+02 0.17896354761E+02 0.18258294573E+02 0.18533366692E+02
 0.18640697995E+02 0.18543945770E+02 0.18254616599E+02 0.17823297745E+02 0.17323754308E+02
 0.16835814502E+02 0.16431481247E+02 0.16166057448E+02 0.16073746377E+02 0.16166058206E+02
 0.16431482113E+02 0.16835814674E+02 0.17323753495E+02 0.17168328899E+02 0.17376026905E+02
 0.17465160921E+02 0.17423995516E+02 0.17276728996E+02 0.17083466630E+02 0.16901178268E+02
 0.16734963951E+02 0.16584188024E+02 0.16450933157E+02 0.16337576772E+02 0.16220085818E+02
 0.16065592609E+02 0.15865614475E+02 0.15633250683E+02 0.15395018440E+02 0.15181938300E+02
 0.15022312220E+02 0.14937023351E+02 0.14937023667E+02 0.15022312971E+02 0.15181938968E+02
 0.15395018449E+02 0.15633249830E+02 0.15865613200E+02 0.16065591742E+02 0.16220085919E+02
 0.16337577653E+02 0.16450934113E+02 0.16584188531E+02 0.16734964096E+02 0.16901178450E+02
 0.17083466938E+02 0.17276729020E+02 0.17423994830E+02 0.17465159683E+02 0.17376025860E+02
 0.17168328744E+02 0.16880663764E+02 0.16565242480E+02 0.16275220580E+02 0.16055505490E+02
 0.15937625209E+02 0.15937625168E+02 0.16055505200E+02 0.16275219807E+02 0.16565241390E+02
 0.16880662997E+02 0.15976156727E+02 0.16065592609E+02 0.16085537991E+02 0.16054883765E+02
 0.16017197328E+02 0.15996206244E+02 0.15989653142E+02 0.15996206244E+02 0.16017197328E+02
 0.16054883765E+02 0.16085537991E+02 0.16065592609E+02 0.15976156727E+02 0.15824076140E+02
 0.15634349458E+02 0.15440296478E+02 0.15274806009E+02 0.15164323769E+02 0.15125598302E+02
 0.15164324405E+02 0.15274807002E+02 0.15440297271E+02 0.15634349454E+02 0.15824075177E+02
 0.15976155339E+02 0.16065591680E+02 0.16085538036E+02 0.16054884517E+02 0.16017198062E+02
 0.15996206500E+02 0.15989653126E+02 0.15996206500E+02 0.16017198062E+02 0.16054884517E+02
 0.16085538036E+02 0.16065591680E+02 0.15976155339E+02 0.15824075177E+02 0.15634349454E+02
 0.15440297271E+02 0.15274807002E+02 0.15164324405E+02 0.15125598302E+02 0.15164323769E+02
 0.15274806009E+02 0.15440296478E+02 0.15634349458E+02 0.15824076140E+02 0.14506728789E+02
 0.14586870065E+02 0.14662917357E+02 0.14759115843E+02 0.14876399393E+02 0.15010894522E+02
 0.15160352168E+02 0.15325109342E+02 0.15507096204E+02 0.15689173014E+02 0.15819441683E+02
 0.15865614475E+02 0.15824076140E+02 0.15714133170E+02 0.15568165777E+02 0.15421618903E+02
 0.15305440425E+02 0.15241698748E+02 0.15241699016E+02 0.15305441175E+02 0.15421619898E+02
 0.15568166529E+02 0.15714133156E+02 0.15824075234E+02 0.15865613181E+02 0.15819440822E+02
 0.15689173061E+02 0.15507096879E+02 0.15325109889E+02 0.15160352080E+02 0.15010894026E+02
 0.14876399212E+02 0.14759116467E+02 0.14662918531E+02 0.14586870985E+02 0.14506728797E+02
 0.14404684352E+02 0.14280882064E+02 0.14148122248E+02 0.14025179271E+02 0.13930863227E+02
 0.13879772740E+02 0.13879772526E+02 0.13930862832E+02 0.14025179226E+02 0.14148122891E+02
 0.14280883173E+02 0.14404685227E+02 0.13008426969E+02 0.13176499249E+02 0.13375987504E+02
 0.13603394336E+02 0.13854379948E+02 0.14125808770E+02 0.14416850632E+02 0.14728368610E+02
 0.15052641595E+02 0.15338101339E+02 0.15537542057E+02 0.15633250683E+02 0.15634349458E+02
 0.15568165777E+02 0.15469706523E+02 0.15372637779E+02 0.15303423540E+02 0.15278509256E+02
 0.15303423827E+02 0.15372638401E+02 0.15469707378E+02 0.15568166483E+02 0.15634349529E+02
 0.15633249960E+02 0.15537540968E+02 0.15338100640E+02 0.15052641739E+02 0.14728369329E+02
 0.14416851163E+02 0.14125808538E+02 0.13854379076E+02 0.13603393532E+02 0.13375987478E+02
 0.13176500138E+02 0.13008428232E+02 0.12868802939E+02 0.12743338825E+02 0.12625937239E+02
 0.12519990839E+02 0.12434067798E+02 0.12377701799E+02 0.12358038097E+02 0.12377701921E+02
 0.12434068238E+02 0.12519991611E+02 0.12625937929E+02 0.12743338852E+02 0.12868802099E+02
 0.11662701319E+02 0.11933644911E+02 0.12241048480E+02 0.12580787274E+02 0.12949184468E+02
 0.13344268884E+02 0.13765641439E+02 0.14211297674E+02 0.14643709300E+02 0.15003010570E+02
 0.15255155844E+02 0.15395018440E+02 0.15440296478E+02 0.15421618903E+02 0.15372637779E+02
 0.15322633604E+02 0.15292350717E+02 0.15292350719E+02 0.15322633739E+02 0.15372638255E+02
 0.15421619672E+02 0.15440297134E+02 0.15395018514E+02 0.15255155228E+02 0.15003009666E+02
 0.14643708744E+02 0.14211297859E+02 0.13765642222E+02 0.13344269675E+02 0.12949184635E+02
 0.12580786594E+02 0.12241047333E+02 0.11933644045E+02 0.11662701302E+02 0.11431040289E+02
 0.11239011358E+02 0.11083984057E+02 0.10959252480E+02 0.10861826871E+02 0.10793602972E+02
 0.10758193765E+02 0.10758193921E+02 0.10793603365E+02 0.10861827252E+02 0.10959252475E+02
 0.11083983435E+02 0.11239010336E+02 0.11431039496E+02 0.10491939666E+02 0.10850105579E+02
 0.11250328945E+02 0.11689023407E+02 0.12163401645E+02 0.12671830716E+02 0.13212783493E+02
 0.13769686254E+02 0.14281621480E+02 0.14698082960E+02 0.14996935456E+02 0.15181938300E+02
 0.15274806009E+02 0.15305440425E+02 0.15303423540E+02 0.15292350717E+02 0.15286998301E+02
 0.15292350567E+02 0.15303423560E+02 0.15305440853E+02 0.15274806684E+02 0.15181938786E+02
 0.14996935424E+02 0.14698082421E+02 0.14281620730E+02 0.13769685699E+02 0.13212783486E+02
 0.12671831369E+02 0.12163402674E+02 0.11689024204E+02 0.11250328952E+02 0.10850104728E+02
 0.10491938467E+02 0.10178952641E+02 0.99125500726E+01 0.96919715206E+01 0.95149125271E+01
 0.93787838699E+01 0.92818347992E+01 0.92234647601E+01 0.92039073993E+01 0.92234648870E+01
 0.92818347788E+01 0.93787834480E+01 0.95149117857E+01 0.96919709134E+01 0.99125501116E+01
 0.10178953468E+02 0.94840271822E+01 0.99181818250E+01 0.10400945107E+02 0.10929350511E+02
 0.11500841122E+02 0.12112925276E+02 0.12760271938E+02 0.13402601894E+02 0.13977017863E+02
 0.14443702206E+02 0.14789341497E+02 0.15022312220E+02 0.15164323769E+02 0.15241698748E+02
 0.15278509256E+02 0.15292350719E+02 0.15292350567E+02 0.15278508999E+02 0.15241698756E+02
 0.15164324162E+02 0.15022312756E+02 0.14789341831E+02 0.14443702177E+02 0.13977017509E+02
 0.13402601325E+02 0.12760271297E+02 0.12112924823E+02 0.11500841191E+02 0.10929351249E+02
 0.10400946224E+02 0.99181826899E+01 0.94840272545E+01 0.91011879189E+01 0.87710998479E+01
 0.84933363123E+01 0.82658768076E+01 0.80860975937E+01 0.79518987968E+01 0.78623223778E+01
 0.78173830990E+01 0.78173830509E+01 0.78623221750E+01 0.79518984058E+01 0.80860972244E+01
 0.82658768542E+01 0.84933369872E+01 0.87711008762E+01 0.91011886583E+01 0.86311496557E+01
 0.91339030820E+01 0.96921701471E+01 0.10303108435E+02 0.10963519068E+02 0.11669091547E+02
 0.12405383227E+02 0.13115754136E+02 0.13744597231E+02 0.14260415250E+02 0.14654869364E+02
 0.14937023351E+02 0.15125598302E+02 0.15241699016E+02 0.15303423827E+02 0.15322633739E+02
 0.15303423560E+02 0.15241698756E+02 0.15125598330E+02 0.14937023694E+02 0.14654869794E+02
 0.14260415534E+02 0.13744597323E+02 0.13115754097E+02 0.12405383013E+02 0.11669091004E+02
 0.10963518227E+02 0.10303107716E+02 0.96921701164E+01 0.91339039229E+01 0.86311509030E+01
 0.81862145159E+01 0.78001828352E+01 0.74724082848E+01 0.72006280096E+01 0.69817715222E+01
 0.68130573823E+01 0.66927943738E+01 0.66204921957E+01 0.65963361015E+01 0.66204920333E+01
 0.66927941844E+01 0.68130574040E+01 0.69817719490E+01 0.72006287594E+01 0.74724089111E+01
 0.78001827915E+01 0.81862136390E+01 0.79277319804E+01 0.84940723845E+01 0.91224112449E+01
 0.98094310212E+01 0.10550605259E+02 0.11339190307E+02 0.12148513001E+02 0.12917679524E+02
 0.13598458886E+02 0.14164372371E+02 0.14608331216E+02 0.14937023667E+02 0.15164324405E+02
 0.15305441175E+02 0.15372638401E+02 0.15372638255E+02 0.15305440853E+02 0.15164324162E+02
 0.14937023694E+02 0.14608331477E+02 0.14164372655E+02 0.13598459058E+02 0.12917679683E+02
 0.12148513310E+02 0.11339190665E+02 0.10550605258E+02 0.98094303461E+01 0.91224101127E+01
 0.84940714863E+01 0.79277319198E+01 0.74256408273E+01 0.69886021812E+01 0.66156036261E+01
 0.63039136209E+01 0.60497881093E+01 0.58495365388E+01 0.57004575754E+01 0.56012116155E+01
 0.55515253385E+01 0.55515253129E+01 0.56012116171E+01 0.57004577533E+01 0.58495369205E+01
 0.60497884696E+01 0.63039135782E+01 0.66156029626E+01 0.69886011393E+01 0.74256400503E+01
 0.73679145398E+01 0.79940981592E+01 0.86878921286E+01 0.94450331825E+01 0.10259231365E+02
 0.11120504275E+02 0.11992455869E+02 0.12816300548E+02 0.13548555077E+02 0.14164372520E+02
 0.14654869792E+02 0.15022312971E+02 0.15274807002E+02 0.15421619898E+02 0.15469707378E+02
 0.15421619672E+02 0.15274806684E+02 0.15022312756E+02 0.14654869794E+02 0.14164372655E+02
 0.13548555139E+02 0.12816300463E+02 0.11992455861E+02 0.11120504679E+02 0.10259232194E+02
 0.94450339392E+01 0.86878921601E+01 0.79940972669E+01 0.73679132327E+01 0.68119232109E+01
 0.63268823329E+01 0.59115046059E+01 0.55625974220E+01 0.52757214123E+01 0.50462274316E+01
 0.48702798968E+01 0.47454502418E+01 0.46706794577E+01 0.46457506796E+01 0.46706795094E+01
 0.47454503737E+01 0.48702800542E+01 0.50462274111E+01 0.52757209979E+01 0.55625966638E+01
 0.59115039499E+01 0.63268823574E+01 0.68119241106E+01 0.69444883807E+01 0.76277249076E+01
 0.83832423635E+01 0.92054852521E+01 0.10086065070E+02 0.11011363535E+02 0.11940050391E+02
 0.12816300568E+02 0.13598458976E+02 0.14260415504E+02 0.14789341947E+02 0.15181938968E+02
 0.15440297271E+02 0.15568166529E+02 0.15568166483E+02 0.15440297134E+02 0.15181938786E+02
 0.14789341831E+02 0.14260415534E+02 0.13598459058E+02 0.12816300463E+02 0.11940049983E+02
 0.11011363074E+02 0.10086065057E+02 0.92054859705E+01 0.83832435134E+01 0.76277257571E+01
 0.69444883556E+01 0.63367595652E+01 0.58054821204E+01 0.53492518153E+01 0.49645204426E+01
 0.46462457683E+01 0.43889020695E+01 0.41875458339E+01 0.40385685558E+01 0.39398980253E+01
 0.38906726703E+01 0.38906726791E+01 0.39398980404E+01 0.40385685222E+01 0.41875456538E+01
 0.43889017114E+01 0.46462454116E+01 0.49645204495E+01 0.53492524373E+01 0.58054831653E+01
 0.63367604050E+01 0.66495198616E+01 0.73882263452E+01 0.82030655005E+01 0.90868408713E+01
 0.10028639334E+02 0.11011363570E+02 0.11992455904E+02 0.12917679513E+02 0.13744597202E+02
 0.14443702162E+02 0.14996935419E+02 0.15395018449E+02 0.15634349454E+02 0.15714133156E+02
 0.15634349529E+02 0.15395018514E+02 0.14996935424E+02 0.14443702177E+02 0.13744597323E+02
 0.12917679683E+02 0.11992455861E+02 0.11011363074E+02 0.10028638484E+02 0.90868401730E+01
 0.82030655256E+01 0.73882272242E+01 0.66495211041E+01 0.59910941780E+01 0.54142776837E+01
 0.49176891184E+01 0.44975328952E+01 0.41482753333E+01 0.38636409605E+01 0.36376888714E+01
 0.34656597523E+01 0.33443621041E+01 0.32720567325E+01 0.32480146192E+01 0.32720567229E+01
 0.33443620432E+01 0.34656596082E+01 0.36376887127E+01 0.38636409908E+01 0.41482757519E+01
 0.44975336381E+01 0.49176897505E+01 0.54142776619E+01 0.59910933286E+01 0.64758460779E+01
 0.72700347780E+01 0.81434739822E+01 0.90868408557E+01 0.10086065079E+02 0.11120504296E+02
 0.12148512945E+02 0.13115753955E+02 0.13977017508E+02 0.14698082394E+02 0.15255155117E+02
 0.15633249830E+02 0.15824075177E+02 0.15824075234E+02 0.15633249960E+02 0.15255155228E+02
 0.14698082421E+02 0.13977017509E+02 0.13115754097E+02 0.12148513310E+02 0.11120504679E+02
 0.10086065057E+02 0.90868401730E+01 0.81434728969E+01 0.72700339637E+01 0.64758460942E+01
 0.57663136871E+01 0.51433720085E+01 0.46057889832E+01 0.41496065028E+01 0.37688836161E+01
 0.34567052653E+01 0.32062592835E+01 0.30117269020E+01 0.28687882731E+01 0.27746833712E+01
 0.27279316094E+01 0.27279316174E+01 0.27746833727E+01 0.28687882482E+01 0.30117269116E+01
 0.32062594548E+01 0.34567056395E+01 0.37688839928E+01 0.41496064982E+01 0.46057883526E+01
 0.51433709679E+01 0.57663128691E+01 0.64185376395E+01 0.72700348248E+01 0.82030655184E+01
 0.92054852413E+01 0.10259231341E+02 0.11339190202E+02 0.12405383010E+02 0.13402601515E+02
 0.14281620862E+02 0.15003009700E+02 0.15537540979E+02 0.15865613200E+02 0.15976155339E+02
 0.15865613181E+02 0.15537540968E+02 0.15003009666E+02 0.14281620730E+02 0.13402601325E+02
 0.12405383013E+02 0.11339190665E+02 0.10259232194E+02 0.92054859705E+01 0.82030655256E+01
 0.72700339637E+01 0.64185364049E+01 0.56557346450E+01 0.49844796763E+01 0.44038573538E+01
 0.39098290130E+01 0.34961010634E+01 0.31551900919E+01 0.28795141195E+01 0.26622996606E+01
 0.24981486574E+01 0.23832205110E+01 0.23151027274E+01 0.22925262182E+01 0.23151027332E+01
 0.23832205214E+01 0.24981487064E+01 0.26622997929E+01 0.28795142813E+01 0.31551900766E+01
 0.34961006592E+01 0.39098282780E+01 0.44038567235E+01 0.49844796955E+01 0.56557354895E+01
 0.64758461313E+01 0.73882264206E+01 0.83832424130E+01 0.94450332203E+01 0.10550605205E+02
 0.11669091384E+02 0.12760271690E+02 0.13769685887E+02 0.14643708799E+02 0.15338100716E+02
 0.15819440943E+02 0.16065591742E+02 0.16065591680E+02 0.15819440822E+02 0.15338100640E+02
 0.14643708744E+02 0.13769685699E+02 0.12760271297E+02 0.11669091004E+02 0.10550605258E+02
 0.94450339392E+01 0.83832435134E+01 0.73882272242E+01 0.64758460942E+01 0.56557346450E+01
 0.49321469644E+01 0.43047645129E+01 0.37695946427E+01 0.33200388369E+01 0.29480788608E+01
 0.26454218916E+01 0.24044256009E+01 0.22186888468E+01 0.20832971548E+01 0.19948025804E+01
 0.19510630544E+01 0.19510630468E+01 0.19948025678E+01 0.20832971609E+01 0.22186888750E+01
 0.24044255871E+01 0.26454217189E+01 0.29480784923E+01 0.33200384651E+01 0.37695946436E+01
 0.43047651346E+01 0.49321480026E+01 0.56557354753E+01 0.66495198720E+01 0.76277249123E+01
 0.86878921910E+01 0.98094310854E+01 0.10963519068E+02 0.12112925261E+02 0.13212783464E+02
 0.14211297651E+02 0.15052641616E+02 0.15689173086E+02 0.16085538104E+02 0.16220085919E+02
 0.16085538036E+02 0.15689173061E+02 0.15052641739E+02 0.14211297859E+02 0.13212783486E+02
 0.12112924823E+02 0.10963518227E+02 0.98094303461E+01 0.86878921601E+01 0.76277257571E+01
 0.66495211041E+01 0.57663136871E+01 0.49844796763E+01 0.43047645129E+01 0.37234662214E+01
 0.32337707172E+01 0.28271403411E+01 0.24945816422E+01 0.22276246651E+01 0.20189307166E+01
 0.18625579498E+01 0.17539955734E+01 0.16900964382E+01 0.16690017700E+01 0.16900964286E+01
 0.17539955709E+01 0.18625579501E+01 0.20189306700E+01 0.22276245242E+01 0.24945814678E+01
 0.28271403442E+01 0.32337711124E+01 0.37234669568E+01 0.43047651536E+01 0.49844796670E+01
 0.57663128444E+01 0.69444882980E+01 0.79940980969E+01 0.91224112740E+01 0.10303108488E+02
 0.11500841255E+02 0.12671830951E+02 0.13765641755E+02 0.14728369061E+02 0.15507096791E+02
 0.16054884498E+02 0.16337577648E+02 0.16337577653E+02 0.16054884517E+02 0.15507096879E+02
 0.14728369329E+02 0.13765642222E+02 0.12671831369E+02 0.11500841191E+02 0.10303107716E+02
 0.91224101127E+01 0.79940972669E+01 0.69444883556E+01 0.59910941780E+01 0.51433720085E+01
 0.44038573538E+01 0.37695946427E+01 0.32337707172E+01 0.27873811238E+01 0.24207103639E+01
 0.21244400906E+01 0.18903105282E+01 0.17113957740E+01 0.15821460899E+01 0.14983606566E+01
 0.14571915311E+01 0.14571915296E+01 0.14983606596E+01 0.15821461022E+01 0.17113957770E+01
 0.18903105063E+01 0.21244400947E+01 0.24207105126E+01 0.27873814728E+01 0.32337710933E+01
 0.37695946674E+01 0.44038567507E+01 0.51433709563E+01 0.59910933104E+01 0.73679144289E+01
 0.84940723321E+01 0.96921701298E+01 0.10929350566E+02 0.12163401871E+02 0.13344269240E+02
 0.14416851145E+02 0.15325110009E+02 0.16017198088E+02 0.16450934062E+02 0.16598715616E+02
 0.16450934113E+02 0.16017198062E+02 0.15325109889E+02 0.14416851163E+02 0.13344269675E+02
 0.12163402674E+02 0.10929351249E+02 0.96921701164E+01 0.84940714863E+01 0.73679132327E+01
 0.63367595652E+01 0.54142776837E+01 0.46057889832E+01 0.39098290130E+01 0.33200388369E+01
 0.28271403411E+01 0.24207103639E+01 0.20905177133E+01 0.18273221752E+01 0.16232004941E+01
 0.14715858169E+01 0.13672320689E+01 0.13062432119E+01 0.12861899609E+01 0.13062432112E+01
 0.13672320704E+01 0.14715858185E+01 0.16232005039E+01 0.18273222342E+01 0.20905178605E+01
 0.24207105352E+01 0.28271403289E+01 0.33200384365E+01 0.39098282853E+01 0.46057883548E+01
 0.54142776865E+01 0.63367603736E+01 0.79277319272E+01 0.91339030623E+01 0.10400945075E+02
 0.11689023477E+02 0.12949184635E+02 0.14125809021E+02 0.15160352564E+02 0.15996206687E+02
 0.16584188475E+02 0.16887877336E+02 0.16887877396E+02 0.16584188531E+02 0.15996206500E+02
 0.15160352080E+02 0.14125808538E+02 0.12949184635E+02 0.11689024204E+02 0.10400946224E+02
 0.91339039229E+01 0.79277319198E+01 0.68119232109E+01 0.58054821204E+01 0.49176891184E+01
 0.41496065028E+01 0.34961010634E+01 0.29480788608E+01 0.24945816422E+01 0.21244400906E+01
 0.18273221752E+01 0.15942054849E+01 0.14174615741E+01 0.12908018406E+01 0.12092807468E+01
 0.11694242210E+01 0.11694242227E+01 0.12092807475E+01 0.12908018306E+01 0.14174615556E+01
 0.15942054867E+01 0.18273222187E+01 0.21244401146E+01 0.24945815017E+01 0.29480784871E+01
 0.34961006552E+01 0.41496064785E+01 0.49176897557E+01 0.58054831961E+01 0.68119240561E+01
 0.86311496704E+01 0.99181817988E+01 0.11250328917E+02 0.12580787288E+02 0.13854379928E+02
 0.15010894540E+02 0.15989653206E+02 0.16734963952E+02 0.17201796993E+02 0.17360806380E+02
 0.17201797125E+02 0.16734964096E+02 0.15989653126E+02 0.15010894026E+02 0.13854379076E+02
 0.12580786594E+02 0.11250328952E+02 0.99181826899E+01 0.86311509030E+01 0.74256408273E+01
 0.63268823329E+01 0.53492518153E+01 0.44975328952E+01 0.37688836161E+01 0.31551900919E+01
 0.26454218916E+01 0.22276246651E+01 0.18903105282E+01 0.16232004941E+01 0.14174615741E+01
 0.12656891200E+01 0.11618747982E+01 0.11014920444E+01 0.10816903230E+01 0.11014920550E+01
 0.11618748033E+01 0.12656891120E+01 0.14174615642E+01 0.16232004843E+01 0.18903104787E+01
 0.22276245279E+01 0.26454217159E+01 0.31551900798E+01 0.37688839904E+01 0.44975336257E+01
 0.53492524831E+01 0.63268823733E+01 0.74256400247E+01 0.94840272344E+01 0.10850105554E+02
 0.12241048448E+02 0.13603394230E+02 0.14876399207E+02 0.15996206068E+02 0.16901178052E+02
 0.17537857374E+02 0.17866713577E+02 0.17866713597E+02 0.17537857532E+02 0.16901178450E+02
 0.15996206500E+02 0.14876399212E+02 0.13603393532E+02 0.12241047333E+02 0.10850104728E+02
 0.94840272545E+01 0.81862145159E+01 0.69886021812E+01 0.59115046059E+01 0.49645204426E+01
 0.41482753333E+01 0.34567052653E+01 0.28795141195E+01 0.24044256009E+01 0.20189307166E+01
 0.17113957740E+01 0.14715858169E+01 0.12908018406E+01 0.11618747982E+01 0.10791995998E+01
 0.10388712874E+01 0.10388712945E+01 0.10791996121E+01 0.11618748064E+01 0.12908018526E+01
 0.14715858334E+01 0.17113957639E+01 0.20189306600E+01 0.24044255680E+01 0.28795142544E+01
 0.34567056220E+01 0.41482757125E+01 0.49645204559E+01 0.59115040018E+01 0.69886011627E+01
 0.81862137031E+01 0.10491939749E+02 0.11933644958E+02 0.13375987493E+02 0.14759115701E+02
 0.16017197127E+02 0.17083466405E+02 0.17896354739E+02 0.18405842394E+02 0.18579385479E+02
 0.18405842230E+02 0.17896354761E+02 0.17083466938E+02 0.16017198062E+02 0.14759116467E+02
 0.13375987478E+02 0.11933644045E+02 0.10491938467E+02 0.91011879189E+01 0.78001828352E+01
 0.66156036261E+01 0.55625974220E+01 0.46462457683E+01 0.38636409605E+01 0.32062592835E+01
 0.26622996606E+01 0.22186888468E+01 0.18625579498E+01 0.15821460899E+01 0.13672320689E+01
 0.12092807468E+01 0.11014920444E+01 0.10388712874E+01 0.10183444834E+01 0.10388712861E+01
 0.11014920440E+01 0.12092807558E+01 0.13672320901E+01 0.15821461072E+01 0.18625579549E+01
 0.22186888820E+01 0.26622997869E+01 0.32062594554E+01 0.38636409588E+01 0.46462453578E+01
 0.55625966526E+01 0.66156029536E+01 0.78001828350E+01 0.91011887817E+01 0.11662701415E+02
 0.13176499373E+02 0.14662917416E+02 0.16054883742E+02 0.17276728908E+02 0.18258294949E+02
 0.18944182127E+02 0.19296626371E+02 0.19296626182E+02 0.18944181677E+02 0.18258294573E+02
 0.17276729020E+02 0.16054884517E+02 0.14662918531E+02 0.13176500138E+02 0.11662701302E+02
 0.10178952641E+02 0.87710998479E+01 0.74724082848E+01 0.63039136209E+01 0.52757214123E+01
 0.43889020695E+01 0.36376888714E+01 0.30117269020E+01 0.24981486574E+01 0.20832971548E+01
 0.17539955734E+01 0.14983606566E+01 0.13062432119E+01 0.11694242210E+01 0.10816903230E+01
 0.10388712945E+01 0.10388712861E+01 0.10816903072E+01 0.11694242143E+01 0.13062432176E+01
 0.14983606603E+01 0.17539955680E+01 0.20832971638E+01 0.24981487039E+01 0.30117269336E+01
 0.36376887508E+01 0.43889017155E+01 0.52757209916E+01 0.63039135350E+01 0.74724088444E+01