   2   2   0   0
  0.2234237E+02  0.3983133E-09  0.3983133E-09  0.3983133E-09  0.5000000E-15
  1.000000000000000E-004
  CAR 
 unknown system                          
     92.47565170    -15.44150757  301      3.56888975      1.00000000
    -15.442  0.0000E+00  0.0000E+00
    -15.082  0.0000E+00  0.0000E+00
    -14.722  0.0000E+00  0.0000E+00
    -14.362  0.0000E+00  0.0000E+00
    -14.003  0.0000E+00  0.0000E+00
    -13.643  0.0000E+00  0.0000E+00
    -13.283  0.0000E+00  0.0000E+00
    -12.923  0.0000E+00  0.0000E+00
    -12.564  0.0000E+00  0.0000E+00
    -12.204  0.0000E+00  0.0000E+00
    -11.844  0.0000E+00  0.0000E+00
    -11.485  0.0000E+00  0.0000E+00
    -11.125 -0.4390E-60 -0.1579E-60
    -10.765 -0.1999E-09 -0.7192E-10
    -10.405  0.2061E+00  0.7412E-01
    -10.046  0.0000E+00  0.7407E-01
     -9.686 -0.5802E-56  0.7407E-01
     -9.326 -0.2501E-07  0.7407E-01
     -8.966  0.1648E+01  0.6667E+00
     -8.607 -0.3975E-01  0.6524E+00
     -8.247  0.1275E+01  0.1111E+01
     -7.887 -0.1488E-87  0.1111E+01
     -7.528 -0.5749E-21  0.1111E+01
     -7.168  0.1418E+01  0.1621E+01
     -6.808  0.1053E+01  0.2000E+01
     -6.448  0.0000E+00  0.2000E+01
     -6.089  0.0000E+00  0.2000E+01
     -5.729  0.0000E+00  0.2000E+01
     -5.369 -0.1614E-28  0.2000E+01
     -5.010 -0.7387E-01  0.1973E+01
     -4.650  0.2545E+01  0.2889E+01
     -4.290  0.0000E+00  0.2889E+01
     -3.930  0.0000E+00  0.2889E+01
     -3.571 -0.1122E-44  0.2889E+01
     -3.211 -0.9148E-04  0.2889E+01
     -2.851  0.2883E+01  0.3926E+01
     -2.491  0.0000E+00  0.3926E+01
     -2.132  0.0000E+00  0.3926E+01
     -1.772 -0.4654E-38  0.3926E+01
     -1.412 -0.6660E-02  0.3924E+01
     -1.053  0.2478E+01  0.4815E+01
     -0.693  0.0000E+00  0.4815E+01
     -0.333  0.0000E+00  0.4815E+01
      0.027 -0.2052E-73  0.4815E+01
      0.386 -0.2465E-14  0.4815E+01
      0.746  0.2558E+01  0.5735E+01
      1.106  0.2493E+01  0.6600E+01
      1.466  0.0000E+00  0.6593E+01
      1.825 -0.1002E-32  0.6593E+01
      2.185 -0.6959E-01  0.6568E+01
      2.545  0.3364E+01  0.7778E+01
      2.904 -0.1107E-66  0.7778E+01
      3.264 -0.9138E-12  0.7778E+01
      3.624  0.6237E+00  0.8002E+01
      3.984  0.0000E+00  0.8000E+01
      4.343 -0.5289E-36  0.8000E+01
      4.703 -0.4866E-02  0.7998E+01
      5.063  0.3094E+01  0.9111E+01
      5.422 -0.4756E-12  0.9111E+01
      5.782  0.2512E+01  0.1001E+02
      6.142 -0.1076E-01  0.9996E+01
      6.502  0.1246E+01  0.1044E+02
      6.861  0.5262E+00  0.1063E+02
      7.221  0.9156E-01  0.1067E+02
      7.581 -0.2119E-47  0.1067E+02
      7.941 -0.2923E-04  0.1067E+02
      8.300  0.3295E+01  0.1185E+02
      8.660  0.0000E+00  0.1185E+02
      9.020  0.0000E+00  0.1185E+02
      9.379  0.0000E+00  0.1185E+02
      9.739 -0.1615E-65  0.1185E+02
     10.099 -0.6245E-11  0.1185E+02
     10.459  0.2491E+01  0.1275E+02
     10.818 -0.7236E-05  0.1274E+02
     11.178  0.5224E+01  0.1462E+02
     11.538 -0.7246E-01  0.1457E+02
     11.898  0.4147E+01  0.1606E+02
     12.257  0.2515E+01  0.1696E+02
     12.617  0.1647E+01  0.1756E+02
     12.977 -0.9451E-09  0.1756E+02
     13.336  0.5785E+01  0.1964E+02
     13.696  0.1369E+01  0.2011E+02
     14.056  0.3044E+00  0.2022E+02
     14.416  0.0000E+00  0.2022E+02
     14.775 -0.7954E-46  0.2022E+02
     15.135 -0.2630E-04  0.2022E+02
     15.495  0.6177E+00  0.2044E+02
     15.854  0.1236E+01  0.2089E+02
     16.214 -0.8402E-43  0.2089E+02
     16.574 -0.2933E-03  0.2089E+02
     16.934  0.1236E+01  0.2133E+02
     17.293 -0.5838E-01  0.2131E+02
     17.653  0.1706E+01  0.2193E+02
     18.013 -0.8682E-24  0.2193E+02
     18.373  0.9120E-01  0.2196E+02
     18.732  0.5057E+01  0.2378E+02
     19.092  0.2524E+01  0.2469E+02
     19.452 -0.4160E-01  0.2465E+02
     19.811  0.1277E+01  0.2511E+02
     20.171  0.7708E+00  0.2539E+02
     20.531  0.6428E+01  0.2770E+02
     20.891  0.1038E+01  0.2807E+02
     21.250 -0.1378E-06  0.2807E+02
     21.610  0.2879E+01  0.2911E+02
     21.970  0.8329E+01  0.3210E+02
     22.329 -0.1535E-70  0.3207E+02
     22.689 -0.3140E-13  0.3207E+02
     23.049  0.1186E+01  0.3250E+02
     23.409  0.5043E+01  0.3430E+02
     23.768  0.0000E+00  0.3430E+02
     24.128  0.0000E+00  0.3430E+02
     24.488 -0.4437E-38  0.3430E+02
     24.848 -0.5308E-02  0.3429E+02
     25.207  0.4124E+01  0.3578E+02
     25.567  0.0000E+00  0.3578E+02
     25.927 -0.1743E-36  0.3578E+02
     26.286 -0.1379E-01  0.3577E+02
     26.646  0.2483E+01  0.3667E+02
     27.006  0.4944E+01  0.3844E+02
     27.366  0.2474E+01  0.3933E+02
     27.725 -0.7648E-86  0.3933E+02
     28.085 -0.2786E-20  0.3933E+02
     28.445  0.8711E+00  0.3965E+02
     28.805  0.3644E+00  0.3978E+02
     29.164  0.3539E+00  0.3991E+02
     29.524  0.1430E+01  0.4042E+02
     29.884  0.3486E+01  0.4167E+02
     30.243  0.3172E+01  0.4281E+02
     30.603  0.5506E+01  0.4480E+02
     30.963  0.5013E+01  0.4659E+02
     31.323  0.1183E+01  0.4702E+02
     31.682  0.3965E+01  0.4844E+02
     32.042 -0.1171E-33  0.4844E+02
     32.402 -0.6592E-01  0.4842E+02
     32.761  0.9950E+01  0.5200E+02
     33.121 -0.4754E-02  0.5200E+02
     33.481  0.4947E+01  0.5378E+02
     33.841  0.1252E+01  0.5423E+02
     34.200  0.5193E+00  0.5441E+02
     34.560  0.1128E+01  0.5481E+02
     34.920  0.0000E+00  0.5481E+02
     35.280  0.0000E+00  0.5481E+02
     35.639  0.0000E+00  0.5481E+02
     35.999  0.0000E+00  0.5481E+02
     36.359 -0.4564E-62  0.5481E+02
     36.718 -0.1848E-09  0.5481E+02
     37.078  0.3303E+01  0.5600E+02
     37.438 -0.3731E-01  0.5599E+02
     37.798  0.6271E+01  0.5824E+02
     38.157  0.2452E+01  0.5910E+02
     38.517  0.4892E+01  0.6086E+02
     38.877  0.5017E+01  0.6267E+02
     39.237  0.2471E+01  0.6356E+02
     39.596  0.2696E+01  0.6453E+02
     39.956  0.2875E+01  0.6556E+02
     40.316  0.1687E+01  0.6616E+02
     40.675  0.1814E+01  0.6681E+02
     41.035 -0.4920E-84  0.6681E+02
     41.395 -0.2999E-19  0.6681E+02
     41.755  0.1961E+01  0.6752E+02
     42.114  0.4117E+01  0.6900E+02
     42.474  0.1086E+00  0.6904E+02
     42.834  0.2504E+01  0.6994E+02
     43.193  0.6261E+01  0.7219E+02
     43.553  0.3126E+00  0.7226E+02
     43.913  0.4610E+01  0.7391E+02
     44.273  0.1065E-02  0.7391E+02
     44.632  0.5387E+01  0.7585E+02
     44.992  0.4497E+00  0.7601E+02
     45.352  0.1603E+01  0.7659E+02
     45.712  0.3095E+01  0.7770E+02
     46.071  0.3411E+01  0.7893E+02
     46.431  0.2267E+01  0.7970E+02
     46.791  0.3066E+01  0.8081E+02
     47.150  0.2492E+01  0.8170E+02
     47.510  0.1229E+01  0.8215E+02
     47.870  0.2272E+01  0.8296E+02
     48.230 -0.3931E-14  0.8296E+02
     48.589  0.2556E+01  0.8388E+02
     48.949  0.2474E+01  0.8474E+02
     49.309 -0.2319E-46  0.8474E+02
     49.669 -0.4908E-04  0.8474E+02
     50.028  0.2434E+01  0.8562E+02
     50.388  0.3725E+01  0.8696E+02
     50.748 -0.8318E-09  0.8696E+02
     51.107  0.3508E+01  0.8822E+02
     51.467 -0.2090E-01  0.8821E+02
     51.827  0.7442E+01  0.9089E+02
     52.187 -0.1700E-08  0.9089E+02
     52.546  0.8324E+01  0.9388E+02
     52.906  0.1225E+01  0.9429E+02
     53.266  0.1044E+01  0.9467E+02
     53.625  0.8525E+00  0.9497E+02
     53.985  0.4569E+01  0.9662E+02
     54.345  0.1809E+01  0.9724E+02
     54.705  0.3115E+01  0.9836E+02
     55.064  0.7033E+01  0.1009E+03
     55.424  0.8481E+00  0.1012E+03
     55.784  0.2035E+01  0.1019E+03
     56.144  0.2471E+01  0.1028E+03
     56.503 -0.6931E-02  0.1028E+03
     56.863  0.2478E+01  0.1037E+03
     57.223 -0.1225E-03  0.1037E+03
     57.582  0.2384E+01  0.1046E+03
     57.942  0.4208E+01  0.1061E+03
     58.302  0.2071E+01  0.1068E+03
     58.662  0.1277E+01  0.1073E+03
     59.021 -0.2208E-02  0.1073E+03
     59.381  0.2446E+01  0.1081E+03
     59.741  0.5666E+01  0.1102E+03
     60.101  0.3834E+01  0.1116E+03
     60.460  0.0000E+00  0.1116E+03
     60.820 -0.5773E-30  0.1116E+03
     61.180 -0.4379E-01  0.1115E+03
     61.539  0.1279E+01  0.1120E+03
     61.899  0.0000E+00  0.1120E+03
     62.259  0.0000E+00  0.1120E+03
     62.619  0.0000E+00  0.1120E+03
     62.978  0.0000E+00  0.1120E+03
     63.338  0.0000E+00  0.1120E+03
     63.698  0.0000E+00  0.1120E+03
     64.057  0.0000E+00  0.1120E+03
     64.417  0.0000E+00  0.1120E+03
     64.777  0.0000E+00  0.1120E+03
     65.137  0.0000E+00  0.1120E+03
     65.496  0.0000E+00  0.1120E+03
     65.856  0.0000E+00  0.1120E+03
     66.216  0.0000E+00  0.1120E+03
     66.576  0.0000E+00  0.1120E+03
     66.935  0.0000E+00  0.1120E+03
     67.295  0.0000E+00  0.1120E+03
     67.655  0.0000E+00  0.1120E+03
     68.014  0.0000E+00  0.1120E+03
     68.374  0.0000E+00  0.1120E+03
     68.734  0.0000E+00  0.1120E+03
     69.094  0.0000E+00  0.1120E+03
     69.453  0.0000E+00  0.1120E+03
     69.813  0.0000E+00  0.1120E+03
     70.173  0.0000E+00  0.1120E+03
     70.532  0.0000E+00  0.1120E+03
     70.892  0.0000E+00  0.1120E+03
     71.252  0.0000E+00  0.1120E+03
     71.612  0.0000E+00  0.1120E+03
     71.971  0.0000E+00  0.1120E+03
     72.331  0.0000E+00  0.1120E+03
     72.691  0.0000E+00  0.1120E+03
     73.051  0.0000E+00  0.1120E+03
     73.410  0.0000E+00  0.1120E+03
     73.770  0.0000E+00  0.1120E+03
     74.130  0.0000E+00  0.1120E+03
     74.489  0.0000E+00  0.1120E+03
     74.849  0.0000E+00  0.1120E+03
     75.209  0.0000E+00  0.1120E+03
     75.569  0.0000E+00  0.1120E+03
     75.928  0.0000E+00  0.1120E+03
     76.288  0.0000E+00  0.1120E+03
     76.648  0.0000E+00  0.1120E+03
     77.008  0.0000E+00  0.1120E+03
     77.367  0.0000E+00  0.1120E+03
     77.727  0.0000E+00  0.1120E+03
     78.087  0.0000E+00  0.1120E+03
     78.446  0.0000E+00  0.1120E+03
     78.806  0.0000E+00  0.1120E+03
     79.166  0.0000E+00  0.1120E+03
     79.526  0.0000E+00  0.1120E+03
     79.885  0.0000E+00  0.1120E+03
     80.245  0.0000E+00  0.1120E+03
     80.605  0.0000E+00  0.1120E+03
     80.964  0.0000E+00  0.1120E+03
     81.324  0.0000E+00  0.1120E+03
     81.684  0.0000E+00  0.1120E+03
     82.044  0.0000E+00  0.1120E+03
     82.403  0.0000E+00  0.1120E+03
     82.763  0.0000E+00  0.1120E+03
     83.123  0.0000E+00  0.1120E+03
     83.483  0.0000E+00  0.1120E+03
     83.842  0.0000E+00  0.1120E+03
     84.202  0.0000E+00  0.1120E+03
     84.562  0.0000E+00  0.1120E+03
     84.921  0.0000E+00  0.1120E+03
     85.281  0.0000E+00  0.1120E+03
     85.641  0.0000E+00  0.1120E+03
     86.001  0.0000E+00  0.1120E+03
     86.360  0.0000E+00  0.1120E+03
     86.720  0.0000E+00  0.1120E+03
     87.080  0.0000E+00  0.1120E+03
     87.440  0.0000E+00  0.1120E+03
     87.799  0.0000E+00  0.1120E+03
     88.159  0.0000E+00  0.1120E+03
     88.519  0.0000E+00  0.1120E+03
     88.878  0.0000E+00  0.1120E+03
     89.238  0.0000E+00  0.1120E+03
     89.598  0.0000E+00  0.1120E+03
     89.958  0.0000E+00  0.1120E+03
     90.317  0.0000E+00  0.1120E+03
     90.677  0.0000E+00  0.1120E+03
     91.037  0.0000E+00  0.1120E+03
     91.396  0.0000E+00  0.1120E+03
     91.756  0.0000E+00  0.1120E+03
     92.116  0.0000E+00  0.1120E+03
     92.476  0.0000E+00  0.1120E+03
