    2    2    1    1
  0.2234237E+02  0.3983132E-09  0.3983132E-09  0.3983132E-09  0.5000000E-15
  1.000000000000000E-004
  CAR 
 unknown system                          
      8     44     56
 
  0.0000000E+00  0.0000000E+00  0.0000000E+00  0.3703704E-01
    1      -10.536182   1.000000
    2        3.526793   1.000011
    3        3.526795   1.000002
    4        3.526799   0.999987
    5        4.798533  -0.000000
    6        6.837992   0.000000
    7        6.837993   0.000000
    8        6.837993   0.000000
    9       10.976814   0.000000
   10       13.710945   0.000000
   11       13.710945   0.000000
   12       15.291862   0.000000
   13       15.291862   0.000000
   14       15.291862   0.000000
   15       18.382130   0.000000
   16       29.180370   0.000000
   17       29.180370   0.000000
   18       29.180370   0.000000
   19       30.395191   0.000000
   20       30.395191   0.000000
   21       30.395191   0.000000
   22       30.439580   0.000000
   23       30.439580   0.000000
   24       31.410137   0.000000
   25       31.410137   0.000000
   26       31.410137   0.000000
   27       39.675637   0.000000
   28       40.083046   0.000000
   29       40.083046   0.000000
   30       40.083046   0.000000
   31       42.863625   0.000000
   32       42.863625   0.000000
   33       43.498972   0.000000
   34       43.498972   0.000000
   35       44.974517   0.000000
   36       44.974517   0.000000
   37       44.974540   0.000000
   38       45.190546   0.000000
   39       45.484568   0.000000
   40       45.484568   0.000000
   41       45.484569   0.000000
   42       46.211362   0.000000
   43       46.211363   0.000000
   44       46.211364   0.000000
   45       46.654794   0.000000
   46       46.654794   0.000000
   47       46.654813   0.000000
   48       47.628863   0.000000
   49       47.628863   0.000000
   50       47.628893   0.000000
   51       51.062200   0.000000
   52       52.970155   0.000000
   53       52.970189   0.000000
   54       53.045176   0.000000
   55       53.099385   0.000000
   56       53.099586   0.000000
 
  0.3333333E+00  0.0000000E+00  0.0000000E+00  0.2962963E+00
    1       -9.113298   1.000000
    2       -3.006235   1.000000
    3        2.267078   1.000000
    4        2.267079   1.000000
    5        4.830416  -0.000000
    6        8.110110   0.000000
    7        8.110110   0.000000
    8       11.696469   0.000000
    9       12.438069   0.000000
   10       13.329415   0.000000
   11       13.329415   0.000000
   12       17.355155   0.000000
   13       20.218000   0.000000
   14       20.218000   0.000000
   15       21.497700   0.000000
   16       21.764920   0.000000
   17       21.764920   0.000000
   18       24.961638   0.000000
   19       30.048393   0.000000
   20       30.382693   0.000000
   21       30.382693   0.000000
   22       31.496443   0.000000
   23       31.496443   0.000000
   24       32.488343   0.000000
   25       32.496002   0.000000
   26       32.496002   0.000000
   27       34.211609   0.000000
   28       36.962805   0.000000
   29       36.962805   0.000000
   30       37.582750   0.000000
   31       37.582750   0.000000
   32       37.731816   0.000000
   33       39.620998   0.000000
   34       40.349521   0.000000
   35       43.133244   0.000000
   36       43.133245   0.000000
   37       43.619452   0.000000
   38       43.619452   0.000000
   39       44.320238   0.000000
   40       46.009053   0.000000
   41       46.009053   0.000000
   42       46.210683   0.000000
   43       47.622710   0.000000
   44       50.984020   0.000000
   45       50.984027   0.000000
   46       52.447460   0.000000
   47       52.447461   0.000000
   48       53.624441   0.000000
   49       54.837939   0.000000
   50       54.838171   0.000000
   51       55.499703   0.000000
   52       57.815224   0.000000
   53       58.246895   0.000000
   54       58.319263   0.000000
   55       59.540605   0.000000
   56       59.722610   0.000000
 
  0.3333333E+00  0.3333333E+00  0.0000000E+00  0.2222222E+00
    1       -8.537307   1.000000
    2       -3.058827   1.000000
    3        0.682143   1.000000
    4        0.682144   1.000000
    5        4.830427  -0.000000
    6        6.240578   0.000000
    7       11.983209   0.000000
    8       11.983209   0.000000
    9       13.278441   0.000000
   10       15.654616   0.000000
   11       16.715281   0.000000
   12       19.043624   0.000000
   13       19.043624   0.000000
   14       19.507911   0.000000
   15       20.181123   0.000000
   16       20.181123   0.000000
   17       21.450764   0.000000
   18       22.970888   0.000000
   19       28.432260   0.000000
   20       29.186194   0.000000
   21       29.598439   0.000000
   22       29.598439   0.000000
   23       30.511392   0.000000
   24       31.286727   0.000000
   25       32.565235   0.000000
   26       32.565235   0.000000
   27       33.748911   0.000000
   28       37.510462   0.000000
   29       38.593391   0.000000
   30       38.593391   0.000000
   31       39.734276   0.000000
   32       40.296473   0.000000
   33       41.735863   0.000000
   34       41.735863   0.000000
   35       42.070529   0.000000
   36       42.079850   0.000000
   37       42.079850   0.000000
   38       43.875893   0.000000
   39       44.504097   0.000000
   40       45.069949   0.000000
   41       45.467912   0.000000
   42       45.467913   0.000000
   43       47.366026   0.000000
   44       50.100027   0.000000
   45       51.566303   0.000000
   46       51.566303   0.000000
   47       52.791870   0.000000
   48       53.908663   0.000000
   49       54.453066   0.000000
   50       54.453075   0.000000
   51       54.750093   0.000000
   52       55.410387   0.000000
   53       59.429509   0.000000
   54       59.930703   0.000000
   55       59.950454   0.000000
   56       61.240375   0.000000
 
 -0.3333333E+00  0.3333333E+00  0.0000000E+00  0.4444444E+00
    1       -7.172237   1.000000
    2       -4.956792   1.000000
    3       -1.297256   1.000000
    4        1.007380   1.000000
    5        5.694849   0.000000
    6       10.358936   0.000000
    7       11.036920   0.000000
    8       11.106580   0.000000
    9       11.610892   0.000000
   10       13.210755   0.000000
   11       18.412800   0.000000
   12       18.521038   0.000000
   13       20.526128   0.000000
   14       21.721482   0.000000
   15       21.913651   0.000000
   16       23.103875   0.000000
   17       23.309021   0.000000
   18       24.990063   0.000000
   19       26.391788   0.000000
   20       26.777321   0.000000
   21       26.795391   0.000000
   22       27.239109   0.000000
   23       29.890701   0.000000
   24       30.676961   0.000000
   25       30.749238   0.000000
   26       32.581576   0.000000
   27       33.240377   0.000000
   28       33.297111   0.000000
   29       37.989338   0.000000
   30       38.258003   0.000000
   31       38.401941   0.000000
   32       38.627218   0.000000
   33       39.054772   0.000000
   34       39.488549   0.000000
   35       42.643866   0.000000
   36       43.045230   0.000000
   37       44.438786   0.000000
   38       46.472946   0.000000
   39       46.834927   0.000000
   40       48.523495   0.000000
   41       48.825517   0.000000
   42       49.831681   0.000000
   43       50.347540   0.000000
   44       51.627679   0.000000
   45       51.713585   0.000000
   46       52.417442   0.000000
   47       52.466343   0.000000
   48       53.939382   0.000000
   49       54.330266   0.000000
   50       55.020957   0.000000
   51       55.968803   0.000000
   52       56.546014   0.000000
   53       57.378259   0.000000
   54       57.643499   0.000000
   55       59.149191   0.000000
   56       59.735356   0.000000
 
  0.5000000E+00  0.5000000E+00  0.5000000E+00  0.0000000E+00
    1       -8.182487   1.000000
    2       -4.740416   1.000000
    3        1.998626   1.000000
    4        2.003684   1.000000
    5        4.582978  -0.000000
    6        8.047346   0.000000
    7        8.050806   0.000000
    8       11.575373   0.000000
    9       15.346666   0.000000
   10       15.885834   0.000000
   11       15.920094   0.000000
   12       16.268732   0.000000
   13       16.648937   0.000000
   14       16.693400   0.000000
   15       23.678993   0.000000
   16       24.786367   0.000000
   17       26.332977   0.000000
   18       26.336943   0.000000
   19       26.343632   0.000000
   20       26.473066   0.000000
   21       29.771717   0.000000
   22       30.999696   0.000000
   23       31.173456   0.000000
   24       31.367884   0.000000
   25       32.287316   0.000000
   26       32.353169   0.000000
   27       33.109728   0.000000
   28       36.242353   0.000000
   29       36.363375   0.000000
   30       36.631053   0.000000
   31       36.743831   0.000000
   32       37.444519   0.000000
   33       38.596319   0.000000
   34       40.657634   0.000000
   35       43.748534   0.000000
   36       44.377404   0.000000
   37       45.472264   0.000000
   38       49.092819   0.000000
   39       49.247799   0.000000
   40       49.909445   0.000000
   41       50.051009   0.000000
   42       51.660725   0.000000
   43       53.804223   0.000000
   44       54.807832   0.000000
   45       55.540273   0.000000
   46       56.644846   0.000000
   47       60.168877   0.000000
   48       61.751917   0.000000
   49       62.850402   0.000000
   50       63.980457   0.000000
   51       64.778894   0.000000
   52       68.772455   0.000000
   53       70.958330   0.000000
   54       72.256943   0.000000
   55       76.771601   0.000000
   56       84.977594   0.000000
 
  0.4736842E+00  0.4736842E+00  0.4736842E+00  0.0000000E+00
    1       -8.218225   1.000000
    2       -4.684507   1.000000
    3        2.005426   1.000000
    4        2.010466   1.000000
    5        4.589151  -0.000000
    6        8.051409   0.000000
    7        8.053529   0.000000
    8       11.585181   0.000000
    9       15.069294   0.000000
   10       15.598166   0.000000
   11       15.600657   0.000000
   12       16.559900   0.000000
   13       16.982373   0.000000
   14       16.988696   0.000000
   15       23.237528   0.000000
   16       25.260577   0.000000
   17       25.556808   0.000000
   18       25.559687   0.000000
   19       27.127202   0.000000
   20       27.268063   0.000000
   21       29.196099   0.000000
   22       31.316505   0.000000
   23       31.345492   0.000000
   24       31.723253   0.000000
   25       32.115166   0.000000
   26       32.216687   0.000000
   27       33.051462   0.000000
   28       36.234831   0.000000
   29       36.449555   0.000000
   30       36.581504   0.000000
   31       36.973444   0.000000
   32       37.067820   0.000000
   33       38.847863   0.000000
   34       40.797034   0.000000
   35       43.760883   0.000000
   36       44.297428   0.000000
   37       45.481768   0.000000
   38       48.392225   0.000000
   39       48.866682   0.000000
   40       49.587720   0.000000
   41       49.989812   0.000000
   42       51.109787   0.000000
   43       53.996093   0.000000
   44       54.472287   0.000000
   45       55.069464   0.000000
   46       55.762148   0.000000
   47       59.546640   0.000000
   48       60.851254   0.000000
   49       62.681074   0.000000
   50       63.451962   0.000000
   51       64.629455   0.000000
   52       68.586320   0.000000
   53       69.109320   0.000000
   54       72.588042   0.000000
   55       77.246606   0.000000
   56       84.393535   0.000000
 
  0.4473684E+00  0.4473684E+00  0.4473684E+00  0.0000000E+00
    1       -8.318693   1.000000
    2       -4.523502   1.000000
    3        2.025829   1.000000
    4        2.030841   1.000000
    5        4.607672  -0.000000
    6        8.061331   0.000000
    7        8.063005   0.000000
    8       11.613930   0.000000
    9       14.567349   0.000000
   10       15.131948   0.000000
   11       15.133273   0.000000
   12       17.013474   0.000000
   13       17.525318   0.000000
   14       17.525808   0.000000
   15       22.558652   0.000000
   16       24.796962   0.000000
   17       24.797161   0.000000
   18       26.021228   0.000000
   19       27.919014   0.000000
   20       28.076303   0.000000
   21       28.457604   0.000000
   22       31.299539   0.000000
   23       31.335778   0.000000
   24       32.275075   0.000000
   25       32.296137   0.000000
   26       32.307583   0.000000
   27       32.813953   0.000000
   28       36.275698   0.000000
   29       36.576403   0.000000
   30       36.604271   0.000000
   31       36.827124   0.000000
   32       37.167104   0.000000
   33       39.169174   0.000000
   34       40.857188   0.000000
   35       43.766606   0.000000
   36       44.237942   0.000000
   37       45.474755   0.000000
   38       47.476887   0.000000
   39       48.209506   0.000000
   40       49.939099   0.000000
   41       50.394867   0.000000
   42       50.476644   0.000000
   43       53.786173   0.000000
   44       54.519633   0.000000
   45       54.588796   0.000000
   46       55.649000   0.000000
   47       58.829141   0.000000
   48       59.995422   0.000000
   49       62.342794   0.000000
   50       62.494676   0.000000
   51       65.033861   0.000000
   52       67.722134   0.000000
   53       68.360077   0.000000
   54       72.738941   0.000000
   55       77.692338   0.000000
   56       83.673641   0.000000
 
  0.4210526E+00  0.4210526E+00  0.4210526E+00  0.0000000E+00
    1       -8.467891   1.000000
    2       -4.273534   1.000000
    3        2.059777   1.000000
    4        2.064757   1.000000
    5        4.638421  -0.000000
    6        8.075751   0.000000
    7        8.077219   0.000000
    8       11.659534   0.000000
    9       14.023945   0.000000
   10       14.661089   0.000000
   11       14.662814   0.000000
   12       17.435980   0.000000
   13       18.122079   0.000000
   14       18.122438   0.000000
   15       21.925449   0.000000
   16       24.050843   0.000000
   17       24.051124   0.000000
   18       26.739049   0.000000
   19       27.825667   0.000000
   20       28.701379   0.000000
   21       28.853634   0.000000
   22       31.270892   0.000000
   23       31.304115   0.000000
   24       32.212627   0.000000
   25       32.243358   0.000000
   26       32.891931   0.000000
   27       32.905680   0.000000
   28       36.371799   0.000000
   29       36.619901   0.000000
   30       36.807611   0.000000
   31       36.865055   0.000000
   32       37.177740   0.000000
   33       39.552562   0.000000
   34       40.997595   0.000000
   35       43.783737   0.000000
   36       44.234662   0.000000
   37       45.426168   0.000000
   38       46.604645   0.000000
   39       47.438968   0.000000
   40       50.151884   0.000000
   41       50.233580   0.000000
   42       50.374008   0.000000
   43       53.389588   0.000000
   44       54.412409   0.000000
   45       54.662022   0.000000
   46       55.953909   0.000000
   47       57.776133   0.000000
   48       58.941083   0.000000
   49       61.748337   0.000000
   50       61.968424   0.000000
   51       65.040356   0.000000
   52       66.487333   0.000000
   53       68.590513   0.000000
   54       72.810834   0.000000
   55       78.348801   0.000000
   56       82.803232   0.000000
 
  0.3947368E+00  0.3947368E+00  0.3947368E+00  0.0000000E+00
    1       -8.648098   1.000000
    2       -3.952622   1.000000
    3        2.107146   1.000000
    4        2.112092   1.000000
    5        4.681195  -0.000000
    6        8.091867   0.000000
    7        8.093203   0.000000
    8       11.716631   0.000000
    9       13.479529   0.000000
   10       14.214604   0.000000
   11       14.216156   0.000000
   12       17.723254   0.000000
   13       18.746701   0.000000
   14       18.747298   0.000000
   15       21.451017   0.000000
   16       23.324544   0.000000
   17       23.324854   0.000000
   18       26.610770   0.000000
   19       28.056965   0.000000
   20       29.440052   0.000000
   21       29.596957   0.000000
   22       31.266620   0.000000
   23       31.293459   0.000000
   24       32.151594   0.000000
   25       32.171772   0.000000
   26       32.776116   0.000000
   27       33.585367   0.000000
   28       36.519220   0.000000
   29       36.727748   0.000000
   30       37.023413   0.000000
   31       37.040738   0.000000
   32       37.243827   0.000000
   33       39.972810   0.000000
   34       41.068968   0.000000
   35       43.796938   0.000000
   36       44.201761   0.000000
   37       45.150273   0.000000
   38       45.858673   0.000000
   39       46.662861   0.000000
   40       49.652581   0.000000
   41       50.001903   0.000000
   42       50.670148   0.000000
   43       52.826788   0.000000
   44       54.607667   0.000000
   45       55.591189   0.000000
   46       55.817101   0.000000
   47       56.352679   0.000000
   48       57.395168   0.000000
   49       61.180098   0.000000
   50       62.208675   0.000000
   51       63.419481   0.000000
   52       65.414329   0.000000
   53       68.447492   0.000000
   54       72.762809   0.000000
   55       79.172464   0.000000
   56       81.797235   0.000000
 
  0.3684211E+00  0.3684211E+00  0.3684211E+00  0.0000000E+00
    1       -8.844487   1.000000
    2       -3.575988   1.000000
    3        2.168403   1.000000
    4        2.178884   1.000000
    5        4.730010  -0.000000
    6        8.104557   0.000000
    7        8.106579   0.000000
    8       11.769629   0.000000
    9       12.959662   0.000000
   10       13.802862   0.000000
   11       13.804740   0.000000
   12       17.759517   0.000000
   13       19.386410   0.000000
   14       19.387363   0.000000
   15       21.255147   0.000000
   16       22.623023   0.000000
   17       22.623355   0.000000
   18       25.928105   0.000000
   19       28.872300   0.000000
   20       30.043212   0.000000
   21       30.151949   0.000000
   22       31.337447   0.000000
   23       31.436478   0.000000
   24       32.134223   0.000000
   25       32.136273   0.000000
   26       32.643833   0.000000
   27       34.040237   0.000000
   28       36.711358   0.000000
   29       36.927907   0.000000
   30       37.276990   0.000000
   31       37.292592   0.000000
   32       37.475164   0.000000
   33       40.387625   0.000000
   34       41.197555   0.000000
   35       43.814472   0.000000
   36       44.109591   0.000000
   37       44.435865   0.000000
   38       45.348946   0.000000
   39       46.186754   0.000000
   40       49.025620   0.000000
   41       49.704791   0.000000
   42       50.781616   0.000000
   43       52.250434   0.000000
   44       54.644562   0.000000
   45       54.667388   0.000000
   46       55.809312   0.000000
   47       56.041313   0.000000
   48       56.640825   0.000000
   49       60.381029   0.000000
   50       61.299771   0.000000
   51       62.195421   0.000000
   52       64.451859   0.000000
   53       68.704416   0.000000
   54       72.897852   0.000000
   55       79.836648   0.000000
   56       80.821514   0.000000
 
  0.3421053E+00  0.3421053E+00  0.3421053E+00  0.0000000E+00
    1       -9.046129   1.000000
    2       -3.154811   1.000000
    3        2.242015   1.000000
    4        2.252562   1.000000
    5        4.795582  -0.000000
    6        8.110389   0.000000
    7        8.112201   0.000000
    8       11.756656   0.000000
    9       12.526965   0.000000
   10       13.435698   0.000000
   11       13.437212   0.000000
   12       17.498425   0.000000
   13       20.021896   0.000000
   14       20.023434   0.000000
   15       21.391125   0.000000
   16       21.960879   0.000000
   17       21.962222   0.000000
   18       25.199361   0.000000
   19       29.764807   0.000000
   20       30.369279   0.000000
   21       30.389478   0.000000
   22       31.466606   0.000000
   23       31.568636   0.000000
   24       32.368081   0.000000
   25       32.422798   0.000000
   26       32.483339   0.000000
   27       34.238501   0.000000
   28       36.942521   0.000000
   29       37.206206   0.000000
   30       37.515044   0.000000
   31       37.774592   0.000000
   32       37.850311   0.000000
   33       41.047451   0.000000
   34       41.233158   0.000000
   35       43.465505   0.000000
   36       43.684033   0.000000
   37       43.976843   0.000000
   38       44.923761   0.000000
   39       46.140271   0.000000
   40       48.338368   0.000000
   41       49.372679   0.000000
   42       50.907403   0.000000
   43       51.670864   0.000000
   44       54.077490   0.000000
   45       54.470814   0.000000
   46       55.320642   0.000000
   47       56.047609   0.000000
   48       57.031687   0.000000
   49       60.184869   0.000000
   50       60.308093   0.000000
   51       60.749953   0.000000
   52       63.889329   0.000000
   53       68.965075   0.000000
   54       72.966845   0.000000
   55       80.027180   0.000000
   56       80.149986   0.000000
 
  0.3157895E+00  0.3157895E+00  0.3157895E+00  0.0000000E+00
    1       -9.245647   1.000000
    2       -2.697485   1.000000
    3        2.327570   1.000000
    4        2.338107   1.000000
    5        4.872106  -0.000000
    6        8.102009   0.000000
    7        8.103640   0.000000
    8       11.508832   0.000000
    9       12.349684   0.000000
   10       13.120803   0.000000
   11       13.122061   0.000000
   12       17.027109   0.000000
   13       20.541048   0.000000
   14       20.543152   0.000000
   15       21.459466   0.000000
   16       21.461683   0.000000
   17       21.752008   0.000000
   18       24.484032   0.000000
   19       30.434305   0.000000
   20       30.450028   0.000000
   21       30.671647   0.000000
   22       31.478894   0.000000
   23       31.522178   0.000000
   24       32.384972   0.000000
   25       32.912439   0.000000
   26       33.090290   0.000000
   27       34.221029   0.000000
   28       37.205165   0.000000
   29       37.505137   0.000000
   30       37.765552   0.000000
   31       38.217193   0.000000
   32       38.424239   0.000000
   33       41.586286   0.000000
   34       41.762278   0.000000
   35       41.951212   0.000000
   36       43.282922   0.000000
   37       43.943144   0.000000
   38       44.663912   0.000000
   39       46.168982   0.000000
   40       47.660031   0.000000
   41       48.986588   0.000000
   42       50.755281   0.000000
   43       51.175091   0.000000
   44       53.364396   0.000000
   45       54.497843   0.000000
   46       54.499891   0.000000
   47       56.066954   0.000000
   48       56.872271   0.000000
   49       58.752152   0.000000
   50       59.368967   0.000000
   51       59.940263   0.000000
   52       63.450908   0.000000
   53       68.888385   0.000000
   54       73.181534   0.000000
   55       79.624688   0.000000
   56       80.000779   0.000000
 
  0.2894737E+00  0.2894737E+00  0.2894737E+00  0.0000000E+00
    1       -9.437890   1.000000
    2       -2.210026   1.000000
    3        2.424470   1.000000
    4        2.434858   1.000000
    5        4.958529   0.000000
    6        8.072521   0.000000
    7        8.073957   0.000000
    8       11.060783   0.000000
    9       12.388826   0.000000
   10       12.865813   0.000000
   11       12.867361   0.000000
   12       16.459228   0.000000
   13       20.366549   0.000000
   14       20.366890   0.000000
   15       21.683232   0.000000
   16       21.686803   0.000000
   17       22.237753   0.000000
   18       23.814554   0.000000
   19       30.403974   0.000000
   20       30.422459   0.000000
   21       31.401297   0.000000
   22       31.421847   0.000000
   23       31.588716   0.000000
   24       32.241645   0.000000
   25       33.697937   0.000000
   26       33.948778   0.000000
   27       34.048882   0.000000
   28       37.494432   0.000000
   29       37.749585   0.000000
   30       38.077933   0.000000
   31       38.523444   0.000000
   32       39.316595   0.000000
   33       41.426283   0.000000
   34       41.522249   0.000000
   35       41.546226   0.000000
   36       43.033909   0.000000
   37       43.974087   0.000000
   38       44.614507   0.000000
   39       46.163002   0.000000
   40       47.126276   0.000000
   41       48.594776   0.000000
   42       50.428965   0.000000
   43       50.755400   0.000000
   44       52.728576   0.000000
   45       53.592621   0.000000
   46       54.428185   0.000000
   47       54.842322   0.000000
   48       57.171293   0.000000
   49       57.358336   0.000000
   50       58.967447   0.000000
   51       59.382196   0.000000
   52       63.123642   0.000000
   53       68.903182   0.000000
   54       73.282106   0.000000
   55       79.002745   0.000000
   56       79.842559   0.000000
 
  0.2631579E+00  0.2631579E+00  0.2631579E+00  0.0000000E+00
    1       -9.619253   1.000000
    2       -1.696591   1.000000
    3        2.531777   1.000000
    4        2.536627   1.000000
    5        5.058354   0.000000
    6        8.016687   0.000000
    7        8.017491   0.000000
    8       10.556066   0.000000
    9       12.498491   0.000000
   10       12.669866   0.000000
   11       12.679046   0.000000
   12       15.871974   0.000000
   13       19.806456   0.000000
   14       19.806744   0.000000
   15       22.329514   0.000000
   16       22.343034   0.000000
   17       22.581501   0.000000
   18       23.373165   0.000000
   19       30.344441   0.000000
   20       30.356774   0.000000
   21       31.295525   0.000000
   22       31.310246   0.000000
   23       32.106044   0.000000
   24       32.501378   0.000000
   25       33.954651   0.000000
   26       34.550414   0.000000
   27       34.723060   0.000000
   28       37.799852   0.000000
   29       37.987648   0.000000
   30       38.337375   0.000000
   31       38.662230   0.000000
   32       40.471951   0.000000
   33       40.677380   0.000000
   34       40.921811   0.000000
   35       41.749642   0.000000
   36       42.941433   0.000000
   37       44.015234   0.000000
   38       44.650584   0.000000
   39       46.087983   0.000000
   40       46.925859   0.000000
   41       48.363690   0.000000
   42       49.908317   0.000000
   43       50.475907   0.000000
   44       52.145103   0.000000
   45       52.731811   0.000000
   46       53.955226   0.000000
   47       54.295228   0.000000
   48       56.488011   0.000000
   49       57.114451   0.000000
   50       58.492194   0.000000
   51       58.957823   0.000000
   52       62.949560   0.000000
   53       68.907282   0.000000
   54       73.635393   0.000000
   55       78.303441   0.000000
   56       79.978680   0.000000
 
  0.2368421E+00  0.2368421E+00  0.2368421E+00  0.0000000E+00
    1       -9.787434   1.000000
    2       -1.161354   1.000000
    3        2.648426   1.000000
    4        2.653278   1.000000
    5        5.159111   0.000000
    6        7.929707   0.000000
    7        7.930341   0.000000
    8       10.038217   0.000000
    9       12.569019   0.000000
   10       12.571837   0.000000
   11       12.574218   0.000000
   12       15.321099   0.000000
   13       19.212266   0.000000
   14       19.212570   0.000000
   15       22.231424   0.000000
   16       23.043422   0.000000
   17       23.046550   0.000000
   18       23.719112   0.000000
   19       30.273081   0.000000
   20       30.280977   0.000000
   21       31.184031   0.000000
   22       31.197179   0.000000
   23       31.978284   0.000000
   24       33.359976   0.000000
   25       33.776556   0.000000
   26       35.416705   0.000000
   27       35.587175   0.000000
   28       38.090381   0.000000
   29       38.274979   0.000000
   30       38.361339   0.000000
   31       38.504387   0.000000
   32       40.547620   0.000000
   33       40.679348   0.000000
   34       41.096201   0.000000
   35       41.852810   0.000000
   36       43.107840   0.000000
   37       44.061031   0.000000
   38       44.744156   0.000000
   39       45.981298   0.000000
   40       46.886636   0.000000
   41       48.162460   0.000000
   42       49.339818   0.000000
   43       50.040866   0.000000
   44       51.722571   0.000000
   45       51.864028   0.000000
   46       53.239149   0.000000
   47       54.028179   0.000000
   48       56.144774   0.000000
   49       56.305264   0.000000
   50       57.414716   0.000000
   51       58.924827   0.000000
   52       63.044390   0.000000
   53       68.708186   0.000000
   54       73.972629   0.000000
   55       77.587954   0.000000
   56       80.098703   0.000000
 
  0.2105263E+00  0.2105263E+00  0.2105263E+00  0.0000000E+00
    1       -9.940710   1.000000
    2       -0.607627   1.000000
    3        2.772101   1.000000
    4        2.776965   1.000000
    5        5.262957   0.000000
    6        7.812835   0.000000
    7        7.813271   0.000000
    8        9.518160   0.000000
    9       12.531576   0.000000
   10       12.545346   0.000000
   11       12.600823   0.000000
   12       14.865111   0.000000
   13       18.626588   0.000000
   14       18.626907   0.000000
   15       21.641580   0.000000
   16       23.787344   0.000000
   17       23.791223   0.000000
   18       24.341440   0.000000
   19       30.199507   0.000000
   20       30.204693   0.000000
   21       31.075804   0.000000
   22       31.088761   0.000000
   23       31.859990   0.000000
   24       33.386033   0.000000
   25       34.386744   0.000000
   26       36.205388   0.000000
   27       36.362235   0.000000
   28       37.920059   0.000000
   29       38.037190   0.000000
   30       38.549800   0.000000
   31       38.652374   0.000000
   32       40.503482   0.000000