       N       E                     dE             d eps       ncg     rms          ort
SDA:   1    -0.990988848122E+01   -0.99099E+01   -0.42358E-01  2464   0.106E+00 0.000E+00
DMP:   2    -0.994539510235E+01   -0.35507E-01   -0.30940E-01  2464   0.499E-01 0.720E-01
DMP:   3    -0.996921193258E+01   -0.23817E-01   -0.13521E-01  2464   0.178E-01 0.420E-01
DMP:   4    -0.997982278672E+01   -0.10611E-01   -0.58996E-02  2464   0.794E-02 0.178E-01
DMP:   5    -0.998425181030E+01   -0.44290E-02   -0.32133E-02  2464   0.456E-02 0.909E-02
DMP:   6    -0.998695790828E+01   -0.27061E-02   -0.18448E-02  2464   0.250E-02 0.553E-02
DMP:   7    -0.998881721947E+01   -0.18593E-02   -0.92993E-03  2464   0.115E-02 0.308E-02
DMP:   8    -0.998925340494E+01   -0.43619E-03   -0.42039E-03  2464   0.489E-03 0.147E-02
DMP:   9    -0.998991906044E+01   -0.66566E-03   -0.19246E-03  2464   0.226E-03 0.668E-03
DMP:  10    -0.998975666948E+01    0.16239E-03   -0.91826E-04  2464   0.108E-03 0.318E-03
DMP:  11    -0.998983324508E+01   -0.76576E-04   -0.43250E-04  2464   0.495E-04 0.153E-03
   1 F= -.99898332E+01 E0= -.99899406E+01  d E =0.322106E-03
