       N       E                     dE             d eps       ncg     rms          rms(c)
