 vasp.5.4.4.18Apr17-6-g9f103f2a35 (build Nov 08 2017 12:56:59) complex          
  
 executed on             LinuxIFC date 2020.03.24  20:45:35
 running on   56 total cores
 distrk:  each k-point on   56 cores,    1 groups
 distr:  one band on NCORES_PER_BAND=   1 cores,   56 groups


--------------------------------------------------------------------------------------------------------


 INCAR:
 POTCAR:    PAW_PBE Ge 05Jan2001                  

 ----------------------------------------------------------------------------- 
|                                                                             |
|           W    W    AA    RRRRR   N    N  II  N    N   GGGG   !!!           |
|           W    W   A  A   R    R  NN   N  II  NN   N  G    G  !!!           |
|           W    W  A    A  R    R  N N  N  II  N N  N  G       !!!           |
|           W WW W  AAAAAA  RRRRR   N  N N  II  N  N N  G  GGG   !            |
|           WW  WW  A    A  R   R   N   NN  II  N   NN  G    G                |
|           W    W  A    A  R    R  N    N  II  N    N   GGGG   !!!           |
|                                                                             |
|      For optimal performance we recommend to set                            |
|        NCORE= 4 - approx SQRT( number of cores)                             |
|      NCORE specifies how many cores store one orbital (NPAR=cpu/NCORE).     |
|      This setting can  greatly improve the performance of VASP for DFT.     |
|      The default,   NCORE=1            might be grossly inefficient         |
|      on modern multi-core architectures or massively parallel machines.     |
|      Do your own testing !!!!                                               |
|      Unfortunately you need to use the default for GW and RPA calculations. |
|      (for HF NCORE is supported but not extensively tested yet)             |
|                                                                             |
 ----------------------------------------------------------------------------- 

 POTCAR:    PAW_PBE Ge 05Jan2001                  
   VRHFIN =Ge: s2p2                                                             
   LEXCH  = PE                                                                  
   EATOM  =   104.9960 eV,    7.7170 Ry                                         
                                                                                
   TITEL  = PAW_PBE Ge 05Jan2001                                                
   LULTRA =        F    use ultrasoft PP ?                                      
   IUNSCR =        1    unscreen: 0-lin 1-nonlin 2-no                           
   RPACOR =    2.170    partial core radius                                     
   POMASS =   72.610; ZVAL   =    4.000    mass and valenz                      
   RCORE  =    2.300    outmost cutoff radius                                   
   RWIGS  =    2.300; RWIGS  =    1.217    wigner-seitz radius (au A)           
   ENMAX  =  173.807; ENMIN  =  130.355 eV                                      
   ICORE  =        3    local potential                                         
   LCOR   =        T    correct aug charges                                     
   LPAW   =        T    paw PP                                                  
   EAUG   =  385.843                                                            
   DEXC   =    0.000                                                            
   RMAX   =    2.342    core radius for proj-oper                               
   RAUG   =    1.300    factor for augmentation sphere                          
   RDEP   =    2.318    radius for radial grids                                 
   RDEPT  =    2.103    core radius for aug-charge                              
                                                                                
   Atomic configuration                                                         
   10 entries                                                                   
     n  l   j            E        occ.                                          
     1  0  0.50    -10959.8463   2.0000                                         
     2  0  0.50     -1371.6056   2.0000                                         
     2  1  1.50     -1198.4791   6.0000                                         
     3  0  0.50      -168.4733   2.0000                                         
     3  1  1.50      -115.6019   6.0000                                         
     3  2  2.50       -29.3106  10.0000                                         
     4  0  0.50       -11.7309   2.0000                                         
     4  1  0.50        -3.8952   2.0000                                         
     4  2  1.50        -4.0817   0.0000                                         
     4  3  2.50        -4.0817   0.0000                                         
   Description                                                                  
     l       E           TYP  RCUT    TYP  RCUT                                 
     0    -11.7309493     23  2.300                                             
     0     -7.4578696     23  2.300                                             
     1     -3.8952261     23  2.300                                             
     1      6.1178114     23  2.300                                             
     2     -4.0817478     23  2.300                                             
     3     -1.3605826      7  2.300                                             
  local pseudopotential read in
  partial core-charges read in
  partial kinetic energy density read in
  atomic valenz-charges read in
  non local Contribution for L=           0  read in
    real space projection operators read in
  non local Contribution for L=           0  read in
    real space projection operators read in
  non local Contribution for L=           1  read in
    real space projection operators read in
  non local Contribution for L=           1  read in
    real space projection operators read in
  non local Contribution for L=           2  read in
    real space projection operators read in
    PAW grid and wavefunctions read in
 
   number of l-projection  operators is LMAX  =           5
   number of lm-projection operators is LMMAX =          13
 
  PAW_PBE Ge 05Jan2001                  :
 energy of atom  1       EATOM= -104.9960
 kinetic energy error for atom=    0.0003 (will be added to EATOM!!)
 
 
 POSCAR: Ge                                      
  positions in direct lattice
  No initial velocities read in
 exchange correlation table for  LEXCH =        8
   RHO(1)=    0.500       N(1)  =     2000
   RHO(2)=  100.500       N(2)  =     4000
 


--------------------------------------------------------------------------------------------------------


 ion  position               nearest neighbor table
   1  0.000  0.000  0.000-   2 2.44   2 2.44   2 2.44   2 2.44
   2  0.250  0.250  0.250-   1 2.44   1 2.44   1 2.44   1 2.44
 
  LATTYP: Found a face centered cubic cell.
 ALAT       =     5.6330000000
  
  Lattice vectors:
  
 A1 = (   0.0000000000,   2.8165000000,   2.8165000000)
 A2 = (   2.8165000000,   0.0000000000,   2.8165000000)
 A3 = (   2.8165000000,   2.8165000000,   0.0000000000)


Analysis of symmetry for initial positions (statically):
=====================================================================
 Subroutine PRICEL returns:
 Original cell was already a primitive cell.
 

 Routine SETGRP: Setting up the symmetry group for a 
 face centered cubic supercell.


 Subroutine GETGRP returns: Found 48 space group operations
 (whereof 24 operations were pure point group operations)
 out of a pool of 48 trial point group operations.


The static configuration has the point symmetry T_d .
 The point group associated with its full space group is O_h .


Analysis of symmetry for dynamics (positions and initial velocities):
=====================================================================
 Subroutine PRICEL returns:
 Original cell was already a primitive cell.
 

 Routine SETGRP: Setting up the symmetry group for a 
 face centered cubic supercell.


 Subroutine GETGRP returns: Found 48 space group operations
 (whereof 24 operations were pure point group operations)
 out of a pool of 48 trial point group operations.


The dynamic configuration has the point symmetry T_d .
 The point group associated with its full space group is O_h .


 Subroutine INISYM returns: Found 48 space group operations
 (whereof 24 operations are pure point group operations),
 and found     1 'primitive' translations

 
 
 KPOINTS: Automatically generated mesh            
  k-points in reciprocal lattice
Space group operators:
 irot       det(A)        alpha          n_x          n_y          n_z        tau_x        tau_y        tau_z
    1     1.000000     0.000000     1.000000     0.000000     0.000000     0.000000     0.000000     0.000000
    2     1.000000   120.000000    -0.577350    -0.577350    -0.577350     0.000000     0.000000     0.000000
    3     1.000000   120.000000     0.577350     0.577350     0.577350     0.000000     0.000000     0.000000
    4    -1.000000    90.000000     0.000000     0.000000    -1.000000     0.000000     0.000000     0.000000
    5    -1.000000   180.000000     0.000000     0.707107     0.707107     0.000000     0.000000     0.000000
    6    -1.000000    90.000000     0.000000     1.000000     0.000000     0.000000     0.000000     0.000000
    7     1.000000   180.000000     0.000000     0.000000     1.000000     0.000000     0.000000     0.000000
    8     1.000000   120.000000    -0.577350     0.577350     0.577350     0.000000     0.000000     0.000000
    9     1.000000   120.000000    -0.577350     0.577350    -0.577350     0.000000     0.000000     0.000000
   10    -1.000000    90.000000     0.000000     0.000000     1.000000     0.000000     0.000000     0.000000
   11    -1.000000    90.000000    -1.000000     0.000000     0.000000     0.000000     0.000000     0.000000
   12    -1.000000   180.000000     0.707107     0.000000     0.707107     0.000000     0.000000     0.000000
   13     1.000000   120.000000     0.577350    -0.577350     0.577350     0.000000     0.000000     0.000000
   14     1.000000   120.000000    -0.577350    -0.577350     0.577350     0.000000     0.000000     0.000000
   15     1.000000   180.000000     1.000000     0.000000     0.000000     0.000000     0.000000     0.000000
   16    -1.000000    90.000000     0.000000    -1.000000     0.000000     0.000000     0.000000     0.000000
   17    -1.000000   180.000000     0.707107     0.707107     0.000000     0.000000     0.000000     0.000000
   18    -1.000000    90.000000     1.000000     0.000000     0.000000     0.000000     0.000000     0.000000
   19     1.000000   120.000000     0.577350    -0.577350    -0.577350     0.000000     0.000000     0.000000
   20     1.000000   180.000000     0.000000     1.000000     0.000000     0.000000     0.000000     0.000000
   21     1.000000   120.000000     0.577350     0.577350    -0.577350     0.000000     0.000000     0.000000
   22    -1.000000   180.000000     0.000000    -0.707107     0.707107     0.000000     0.000000     0.000000
   23    -1.000000   180.000000     0.707107    -0.707107     0.000000     0.000000     0.000000     0.000000
   24    -1.000000   180.000000     0.707107     0.000000    -0.707107     0.000000     0.000000     0.000000
   25    -1.000000     0.000000     1.000000     0.000000     0.000000     0.250000     0.250000     0.250000
   26    -1.000000   120.000000    -0.577350    -0.577350    -0.577350     0.250000     0.250000     0.250000
   27    -1.000000   120.000000     0.577350     0.577350     0.577350     0.250000     0.250000     0.250000
   28     1.000000    90.000000     0.000000     0.000000    -1.000000     0.250000     0.250000     0.250000
   29     1.000000   180.000000     0.000000     0.707107     0.707107     0.250000     0.250000     0.250000
   30     1.000000    90.000000     0.000000     1.000000     0.000000     0.250000     0.250000     0.250000
   31    -1.000000   180.000000     0.000000     0.000000     1.000000     0.250000     0.250000     0.250000
   32    -1.000000   120.000000    -0.577350     0.577350     0.577350     0.250000     0.250000     0.250000
   33    -1.000000   120.000000    -0.577350     0.577350    -0.577350     0.250000     0.250000     0.250000
   34     1.000000    90.000000     0.000000     0.000000     1.000000     0.250000     0.250000     0.250000
   35     1.000000    90.000000    -1.000000     0.000000     0.000000     0.250000     0.250000     0.250000
   36     1.000000   180.000000     0.707107     0.000000     0.707107     0.250000     0.250000     0.250000
   37    -1.000000   120.000000     0.577350    -0.577350     0.577350     0.250000     0.250000     0.250000
   38    -1.000000   120.000000    -0.577350    -0.577350     0.577350     0.250000     0.250000     0.250000
   39    -1.000000   180.000000     1.000000     0.000000     0.000000     0.250000     0.250000     0.250000
   40     1.000000    90.000000     0.000000    -1.000000     0.000000     0.250000     0.250000     0.250000
   41     1.000000   180.000000     0.707107     0.707107     0.000000     0.250000     0.250000     0.250000
   42     1.000000    90.000000     1.000000     0.000000     0.000000     0.250000     0.250000     0.250000
   43    -1.000000   120.000000     0.577350    -0.577350    -0.577350     0.250000     0.250000     0.250000
   44    -1.000000   180.000000     0.000000     1.000000     0.000000     0.250000     0.250000     0.250000
   45    -1.000000   120.000000     0.577350     0.577350    -0.577350     0.250000     0.250000     0.250000
   46     1.000000   180.000000     0.000000    -0.707107     0.707107     0.250000     0.250000     0.250000
   47     1.000000   180.000000     0.707107    -0.707107     0.000000     0.250000     0.250000     0.250000
   48     1.000000   180.000000     0.707107     0.000000    -0.707107     0.250000     0.250000     0.250000

 ----------------------------------------------------------------------------- 
|                                                                             |
|           W    W    AA    RRRRR   N    N  II  N    N   GGGG   !!!           |
|           W    W   A  A   R    R  NN   N  II  NN   N  G    G  !!!           |
|           W    W  A    A  R    R  N N  N  II  N N  N  G       !!!           |
|           W WW W  AAAAAA  RRRRR   N  N N  II  N  N N  G  GGG   !            |
|           WW  WW  A    A  R   R   N   NN  II  N   NN  G    G                |
|           W    W  A    A  R    R  N    N  II  N    N   GGGG   !!!           |
|                                                                             |
|      Your generating k-point grid is not commensurate to the symmetry       |
|      of the lattice.  This can cause   slow convergence with respect        |
|      to k-points for HF type calculations                                   |
|      suggested SOLUTIONS:                                                   |
|       ) if not already the case, use automatic k-point generation           |
|       ) shift your grid to Gamma (G) (e.g. required for hex or fcc lattice) |
|                                                                             |
 ----------------------------------------------------------------------------- 

 
 Subroutine IBZKPT_HF returns following result:
 ==============================================
 
 Found     67 k-points in 1st BZ
 the following     67 k-points will be used (e.g. in the exchange kernel)
 Following reciprocal coordinates:   # in IRBZ
  0.000000  0.000000  0.000000    0.03703704   1 t-inv F
  0.333333  0.000000  0.000000    0.03703704   2 t-inv F
  0.333333  0.333333  0.000000    0.03703704   3 t-inv F
 -0.333333  0.333333  0.000000    0.03703704   4 t-inv F
  0.500000  0.500000  0.500000    0.00000000   5 t-inv F
  0.473684  0.473684  0.473684    0.00000000   6 t-inv F
  0.447368  0.447368  0.447368    0.00000000   7 t-inv F
  0.421053  0.421053  0.421053    0.00000000   8 t-inv F
  0.394737  0.394737  0.394737    0.00000000   9 t-inv F
  0.368421  0.368421  0.368421    0.00000000  10 t-inv F
  0.342105  0.342105  0.342105    0.00000000  11 t-inv F
  0.315789  0.315789  0.315789    0.00000000  12 t-inv F
  0.289474  0.289474  0.289474    0.00000000  13 t-inv F
  0.263158  0.263158  0.263158    0.00000000  14 t-inv F
  0.236842  0.236842  0.236842    0.00000000  15 t-inv F
  0.210526  0.210526  0.210526    0.00000000  16 t-inv F
  0.184211  0.184211  0.184211    0.00000000  17 t-inv F
  0.157895  0.157895  0.157895    0.00000000  18 t-inv F
  0.131579  0.131579  0.131579    0.00000000  19 t-inv F
  0.105263  0.105263  0.105263    0.00000000  20 t-inv F
  0.078947  0.078947  0.078947    0.00000000  21 t-inv F
  0.052632  0.052632  0.052632    0.00000000  22 t-inv F
  0.026316  0.026316  0.026316    0.00000000  23 t-inv F
  0.000000  0.000000  0.000000    0.00000000  24 t-inv F
  0.000000  0.000000  0.000000    0.00000000  25 t-inv F
  0.026316  0.000000  0.026316    0.00000000  26 t-inv F
  0.052632  0.000000  0.052632    0.00000000  27 t-inv F
  0.078947  0.000000  0.078947    0.00000000  28 t-inv F
  0.105263  0.000000  0.105263    0.00000000  29 t-inv F
  0.131579  0.000000  0.131579    0.00000000  30 t-inv F
  0.157895  0.000000  0.157895    0.00000000  31 t-inv F
  0.184211  0.000000  0.184211    0.00000000  32 t-inv F
  0.210526  0.000000  0.210526    0.00000000  33 t-inv F
  0.236842  0.000000  0.236842    0.00000000  34 t-inv F
  0.263158  0.000000  0.263158    0.00000000  35 t-inv F
  0.289474  0.000000  0.289474    0.00000000  36 t-inv F
  0.315789  0.000000  0.315789    0.00000000  37 t-inv F
  0.342105  0.000000  0.342105    0.00000000  38 t-inv F
  0.368421  0.000000  0.368421    0.00000000  39 t-inv F
  0.394737  0.000000  0.394737    0.00000000  40 t-inv F
  0.421053  0.000000  0.421053    0.00000000  41 t-inv F
  0.447368  0.000000  0.447368    0.00000000  42 t-inv F
  0.473684  0.000000  0.473684    0.00000000  43 t-inv F
  0.500000  0.000000  0.500000    0.00000000  44 t-inv F
  0.000000  0.333333  0.000000    0.03703704   2 t-inv F
  0.000000  0.000000  0.333333    0.03703704   2 t-inv F
 -0.333333 -0.333333 -0.333333    0.03703704   2 t-inv F
 -0.333333  0.000000  0.000000    0.03703704   2 t-inv F
  0.000000 -0.333333  0.000000    0.03703704   2 t-inv F
  0.000000  0.000000 -0.333333    0.03703704   2 t-inv F
  0.333333  0.333333  0.333333    0.03703704   2 t-inv F
  0.000000  0.333333  0.333333    0.03703704   3 t-inv F
  0.333333  0.000000  0.333333    0.03703704   3 t-inv F
 -0.333333 -0.333333  0.000000    0.03703704   3 t-inv F
 -0.333333  0.000000 -0.333333    0.03703704   3 t-inv F
  0.000000 -0.333333 -0.333333    0.03703704   3 t-inv F
  0.000000 -0.333333  0.333333    0.03703704   4 t-inv F
  0.333333  0.000000 -0.333333    0.03703704   4 t-inv F
 -0.333333 -0.333333 -0.666667    0.03703704   4 t-inv F
  0.333333  0.666667  0.333333    0.03703704   4 t-inv F
  0.333333 -0.333333  0.000000    0.03703704   4 t-inv F
 -0.666667 -0.333333 -0.333333    0.03703704   4 t-inv F
  0.333333  0.333333  0.666667    0.03703704   4 t-inv F
  0.000000  0.333333 -0.333333    0.03703704   4 t-inv F
 -0.333333 -0.666667 -0.333333    0.03703704   4 t-inv F
  0.666667  0.333333  0.333333    0.03703704   4 t-inv F
 -0.333333  0.000000  0.333333    0.03703704   4 t-inv F


--------------------------------------------------------------------------------------------------------




 Dimension of arrays:
   k-points           NKPTS =     44   k-points in BZ     NKDIM =     67   number of bands    NBANDS=     56
   number of dos      NEDOS =    301   number of ions     NIONS =      2
   non local maximal  LDIM  =      5   non local SUM 2l+1 LMDIM =     13
   total plane-waves  NPLWV =  13824
   max r-space proj   IRMAX =      1   max aug-charges    IRDMAX=  17012
   dimension x,y,z NGX =    24 NGY =   24 NGZ =   24
   dimension x,y,z NGXF=    48 NGYF=   48 NGZF=   48
   support grid    NGXF=    48 NGYF=   48 NGZF=   48
   ions per type =               2
   NGX,Y,Z   is equivalent  to a cutoff of  10.02, 10.02, 10.02 a.u.
   NGXF,Y,Z  is equivalent  to a cutoff of  20.03, 20.03, 20.03 a.u.

 SYSTEM =  unknown system                          
 POSCAR =  Ge                                      

 Startparameter for this run:
   NWRITE =      2    write-flag & timer
   PREC   = n         normal or accurate (medium, high low for compatibility)
   ISTART =      1    job   : 0-new  1-cont  2-samecut
   ICHARG =     11    charge: 1-file 2-atom 10-const
   ISPIN  =      1    spin polarized calculation?
   LNONCOLLINEAR =      F non collinear calculations
   LSORBIT =      F    spin-orbit coupling
   INIWAV =      1    electr: 0-lowe 1-rand  2-diag
   LASPH  =      F    aspherical Exc in radial PAW
   METAGGA=      F    non-selfconsistent MetaGGA calc.

 Electronic Relaxation 1
   ENCUT  =  450.0 eV  33.07 Ry    5.75 a.u.   6.89  6.89  6.89*2*pi/ulx,y,z
   ENINI  =  450.0     initial cutoff
   ENAUG  =  385.8 eV  augmentation charge cutoff
   NELM   =     60;   NELMIN=  2; NELMDL=  0     # of ELM steps 
   EDIFF  = 0.1E-03   stopping-criterion for ELM
   LREAL  =      F    real-space projection
   NLSPLINE    = F    spline interpolate recip. space projectors
   LCOMPAT=      F    compatible to vasp.4.4
   GGA_COMPAT  = T    GGA compatible to vasp.4.4-vasp.4.6
   LMAXPAW     = -100 max onsite density
   LMAXMIX     =    2 max onsite mixed and CHGCAR
   VOSKOWN=      0    Vosko Wilk Nusair interpolation
   ROPT   =    0.00000
 Ionic relaxation
   EDIFFG = 0.1E-02   stopping-criterion for IOM
   NSW    =      0    number of steps for IOM
   NBLOCK =      1;   KBLOCK =      1    inner block; outer block 
   IBRION =     -1    ionic relax: 0-MD 1-quasi-New 2-CG
   NFREE  =      0    steps in history (QN), initial steepest desc. (CG)
   ISIF   =      0    stress and relaxation
   IWAVPR =     10    prediction:  0-non 1-charg 2-wave 3-comb
   ISYM   =      3    0-nonsym 1-usesym 2-fastsym
   LCORR  =      T    Harris-Foulkes like correction to forces

   POTIM  = 0.5000    time-step for ionic-motion
   TEIN   =    0.0    initial temperature
   TEBEG  =    0.0;   TEEND  =   0.0 temperature during run
   SMASS  =  -3.00    Nose mass-parameter (am)
   estimated Nose-frequenzy (Omega)   =  0.10E-29 period in steps =****** mass=  -0.363E-27a.u.
   SCALEE = 1.0000    scale energy and forces
   NPACO  =    256;   APACO  = 16.0  distance and # of slots for P.C.
   PSTRESS=    0.0 pullay stress

  Mass of Ions in am
   POMASS =  72.61
  Ionic Valenz
   ZVAL   =   4.00
  Atomic Wigner-Seitz radii
   RWIGS  =  -1.00
  virtual crystal weights 
   VCA    =   1.00
   NELECT =       8.0000    total number of electrons
   NUPDOWN=      -1.0000    fix difference up-down

 DOS related values:
   EMIN   =  10.00;   EMAX   =-10.00  energy-range for DOS
   EFERMI =   0.00
   ISMEAR =     1;   SIGMA  =   0.05  broadening in eV -4-tet -1-fermi 0-gaus

 Electronic relaxation 2 (details)
   IALGO  =     53    algorithm
   LDIAG  =      T    sub-space diagonalisation (order eigenvalues)
   LSUBROT=      F    optimize rotation matrix (better conditioning)
   TURBO    =      0    0=normal 1=particle mesh
   IRESTART =      0    0=no restart 2=restart with 2 vectors
   NREBOOT  =      0    no. of reboots
   NMIN     =      0    reboot dimension
   EREF     =   0.00    reference energy to select bands
   IMIX   =      4    mixing-type and parameters
     AMIX     =   0.40;   BMIX     =  1.00
     AMIX_MAG =   1.60;   BMIX_MAG =  1.00
     AMIN     =   0.10
     WC   =   100.;   INIMIX=   1;  MIXPRE=   1;  MAXMIX= -45

 Intra band minimization:
   WEIMIN = 0.0000     energy-eigenvalue tresh-hold
   EBREAK =  0.45E-06  absolut break condition
   DEPER  =   0.30     relativ break condition  

   TIME   =   0.40     timestep for ELM

  volume/ion in A,a.u.               =      22.34       150.77
  Fermi-wavevector in a.u.,A,eV,Ry     =   0.922681  1.743615 11.583196  0.851341
  Thomas-Fermi vector in A             =   2.048235
 
 Write flags
   LWAVE        =      F    write WAVECAR
   LDOWNSAMPLE  =      F    k-point downsampling of WAVECAR
   LCHARG       =      F    write CHGCAR
   LVTOT        =      F    write LOCPOT, total local potential
   LVHAR        =      F    write LOCPOT, Hartree potential only
   LELF         =      F    write electronic localiz. function (ELF)
   LORBIT       =      0    0 simple, 1 ext, 2 COOP (PROOUT), +10 PAW based schemes


 Dipole corrections
   LMONO  =      F    monopole corrections only (constant potential shift)
   LDIPOL =      F    correct potential (dipole corrections)
   IDIPOL =      0    1-x, 2-y, 3-z, 4-all directions 
   EPSILON=  1.0000000 bulk dielectric constant

 Exchange correlation treatment:
   GGA     =    PE    GGA type
   LEXCH   =     8    internal setting for exchange type
   VOSKOWN=      0    Vosko Wilk Nusair interpolation
   EXXOEP  =     0    0=HF, 1=EXX-LHF (local Hartree Fock) 2=EXX OEP
   LHFCALC =     T    Hartree Fock is set to
   LSYMGRAD=     F    symmetrize gradient (conserves proper symmetry)
   PRECFOCK=normal    Normal, Fast or Accurate (Low or Medium for compatibility)
   LRHFCALC=     F    long range Hartree Fock
   LRSCOR  =     F    long range correlation only (use DFT for short range part)
   LTHOMAS =     F    Thomas Fermi screening in HF
   LMODELHF=     F    short range full HF, long range fraction AEXX
   ENCUT4O =  -1.0   cutoff for four orbital integrals eV
   LMAXFOCK=     4    L truncation for augmentation on plane wave grid
   LMAXFOCKAE=  -1    L truncation for all-electron charge restoration on plane wave grid
   NMAXFOCKAE=   1    number of basis functions for all-electron charge restoration
   LFOCKAEDFT=     F  apply the AE augmentation even for DFT
   NKREDX  =     1    reduce k-point grid by
   NKREDY  =     1    reduce k-point grid by
   NKREDZ  =     1    reduce k-point grid by
   SHIFTRED=     F    shift reduced grid of Gamma
   HFKIDENT=     F    idential grid for each k-point
   ODDONLY =     F    use only odd q-grid points
   EVENONLY=     F    use only even q-grid points
   HFALPHA =   -1.0000 decay constant for conv. correction
   MCALPHA =    0.0000 extent of test-charge in conv. correction in multipole expansion
   AEXX    =    0.2500 exact exchange contribution
   HFSCREEN=    0.2000 screening length (either q_TF or 0.3 A-1)
   HFSCREENC=   0.2000 screening length for correlation (either q_TF or 0.3 A-1)
   HFRCUT  =    0.0000 spherical cutoff for potential kernel
   ALDAX   =    0.7500 LDA exchange part
   AGGAX   =    0.7500 GGA exchange part
   ALDAC   =    1.0000 LDA correlation
   AGGAC   =    1.0000 GGA correlation
   ENCUTFOCK=  -1.0 apply spherical cutoff to Coloumb kernel
   NBANDSGWLOW=     1    first orbital included in HF term
   NBLOCK_FOCK=    64    blocking factor in FOCK_ACC
 Linear response parameters
   LEPSILON=     F    determine dielectric tensor
   LRPA    =     F    only Hartree local field effects (RPA)
   LNABLA  =     F    use nabla operator in PAW spheres
   LVEL    =     F    velocity operator in full k-point grid
   LINTERFAST=   F  fast interpolation
   KINTER  =     0    interpolate to denser k-point grid
   CSHIFT  =0.1000    complex shift for real part using Kramers Kronig
   OMEGAMAX=  -1.0    maximum frequency
   DEG_THRESHOLD= 0.2000000E-02 threshold for treating states as degnerate
   RTIME   =   -0.100 relaxation time in fs
  (WPLASMAI=    0.000 imaginary part of plasma frequency in eV, 0.658/RTIME)
   DFIELD  = 0.0000000 0.0000000 0.0000000 field for delta impulse in time
 
 Orbital magnetization related:
   ORBITALMAG=     F  switch on orbital magnetization
   LCHIMAG   =     F  perturbation theory with respect to B field
   DQ        =  0.001000  dq finite difference perturbation B field
   LLRAUG    =     F  two centre corrections for induced B field



--------------------------------------------------------------------------------------------------------


 Static calculation
 charge density and potential remain constant during run
 non-spin polarized calculation
 Conjugate gradient for all bands (Freysoldt, et al. PRB 79, 241103 (2009))
 perform sub-space diagonalisation
    before iterative eigenvector-optimisation
 no mixing
 using additional bands           52
 reciprocal scheme for non local part
 use partial core corrections
 calculate Harris-corrections to forces 
   (improved forces if not selfconsistent)
 use gradient corrections 
 WARNING: stress and forces are not correct
  (second derivative of E(xc) not defined)
 use of overlap-Matrix (Vanderbilt PP)
 Methfessel and Paxton  Order N= 1 SIGMA  =   0.05


--------------------------------------------------------------------------------------------------------


  energy-cutoff  :      450.00
  volume of cell :       44.68
      direct lattice vectors                 reciprocal lattice vectors
     0.000000000  2.816500000  2.816500000    -0.177525297  0.177525297  0.177525297
     2.816500000  0.000000000  2.816500000     0.177525297 -0.177525297  0.177525297
     2.816500000  2.816500000  0.000000000     0.177525297  0.177525297 -0.177525297

  length of vectors
     3.983132498  3.983132498  3.983132498     0.307482835  0.307482835  0.307482835


 
 old parameters found on file WAVECAR:
  energy-cutoff  :      450.00
  volume of cell :       44.68
      direct lattice vectors                 reciprocal lattice vectors
     0.000000000  2.816500000  2.816500000    -0.177525297  0.177525297  0.177525297
     2.816500000  0.000000000  2.816500000     0.177525297 -0.177525297  0.177525297
     2.816500000  2.816500000  0.000000000     0.177525297  0.177525297 -0.177525297

  length of vectors

 
 k-points in units of 2pi/SCALE and weight: Automatically generated mesh            
   0.00000000  0.00000000  0.00000000       0.037
  -0.05917510  0.05917510  0.05917510       0.296
   0.00000000  0.00000000  0.11835020       0.222
   0.11835020 -0.11835020  0.00000000       0.444
   0.08876265  0.08876265  0.08876265       0.000
   0.08409093  0.08409093  0.08409093       0.000
   0.07941921  0.07941921  0.07941921       0.000
   0.07474749  0.07474749  0.07474749       0.000
   0.07007578  0.07007578  0.07007578       0.000
   0.06540406  0.06540406  0.06540406       0.000
   0.06073234  0.06073234  0.06073234       0.000
   0.05606062  0.05606062  0.05606062       0.000
   0.05138890  0.05138890  0.05138890       0.000
   0.04671718  0.04671718  0.04671718       0.000
   0.04204547  0.04204547  0.04204547       0.000
   0.03737375  0.03737375  0.03737375       0.000
   0.03270203  0.03270203  0.03270203       0.000
   0.02803031  0.02803031  0.02803031       0.000
   0.02335859  0.02335859  0.02335859       0.000
   0.01868687  0.01868687  0.01868687       0.000
   0.01401516  0.01401516  0.01401516       0.000
   0.00934344  0.00934344  0.00934344       0.000
   0.00467172  0.00467172  0.00467172       0.000
   0.00000000  0.00000000  0.00000000       0.000
   0.00000000  0.00000000  0.00000000       0.000
   0.00000000  0.00934344  0.00000000       0.000
   0.00000000  0.01868687  0.00000000       0.000
   0.00000000  0.02803031  0.00000000       0.000
   0.00000000  0.03737375  0.00000000       0.000
   0.00000000  0.04671718  0.00000000       0.000
   0.00000000  0.05606062  0.00000000       0.000
   0.00000000  0.06540406  0.00000000       0.000
   0.00000000  0.07474749  0.00000000       0.000
   0.00000000  0.08409093  0.00000000       0.000
   0.00000000  0.09343437  0.00000000       0.000
   0.00000000  0.10277780  0.00000000       0.000
   0.00000000  0.11212124  0.00000000       0.000
   0.00000000  0.12146468  0.00000000       0.000
   0.00000000  0.13080811  0.00000000       0.000
   0.00000000  0.14015155  0.00000000       0.000
   0.00000000  0.14949499  0.00000000       0.000
   0.00000000  0.15883842  0.00000000       0.000
   0.00000000  0.16818186  0.00000000       0.000
   0.00000000  0.17752530  0.00000000       0.000
 
 k-points in reciprocal lattice and weights: Automatically generated mesh            
   0.00000000  0.00000000  0.00000000       0.037
   0.33333333  0.00000000  0.00000000       0.296
   0.33333333  0.33333333  0.00000000       0.222
  -0.33333333  0.33333333  0.00000000       0.444
   0.50000000  0.50000000  0.50000000       0.000
   0.47368421  0.47368421  0.47368421       0.000
   0.44736842  0.44736842  0.44736842       0.000
   0.42105263  0.42105263  0.42105263       0.000
   0.39473684  0.39473684  0.39473684       0.000
   0.36842105  0.36842105  0.36842105       0.000
   0.34210526  0.34210526  0.34210526       0.000
   0.31578947  0.31578947  0.31578947       0.000
   0.28947368  0.28947368  0.28947368       0.000
   0.26315789  0.26315789  0.26315789       0.000
   0.23684211  0.23684211  0.23684211       0.000
   0.21052632  0.21052632  0.21052632       0.000
   0.18421053  0.18421053  0.18421053       0.000
   0.15789474  0.15789474  0.15789474       0.000
   0.13157895  0.13157895  0.13157895       0.000
   0.10526316  0.10526316  0.10526316       0.000
   0.07894737  0.07894737  0.07894737       0.000
   0.05263158  0.05263158  0.05263158       0.000
   0.02631579  0.02631579  0.02631579       0.000
   0.00000000  0.00000000  0.00000000       0.000
   0.00000000  0.00000000  0.00000000       0.000
   0.02631579  0.00000000  0.02631579       0.000
   0.05263158  0.00000000  0.05263158       0.000
   0.07894737  0.00000000  0.07894737       0.000
   0.10526316  0.00000000  0.10526316       0.000
   0.13157895  0.00000000  0.13157895       0.000
   0.15789474  0.00000000  0.15789474       0.000
   0.18421053  0.00000000  0.18421053       0.000
   0.21052632  0.00000000  0.21052632       0.000
   0.23684211  0.00000000  0.23684211       0.000
   0.26315789  0.00000000  0.26315789       0.000
   0.28947368  0.00000000  0.28947368       0.000
   0.31578947  0.00000000  0.31578947       0.000
   0.34210526  0.00000000  0.34210526       0.000
   0.36842105  0.00000000  0.36842105       0.000
   0.39473684  0.00000000  0.39473684       0.000
   0.42105263  0.00000000  0.42105263       0.000
   0.44736842  0.00000000  0.44736842       0.000
   0.47368421  0.00000000  0.47368421       0.000
   0.50000000  0.00000000  0.50000000       0.000
 
 position of ions in fractional coordinates (direct lattice) 
   0.00000000  0.00000000  0.00000000
   0.25000000  0.25000000  0.25000000
 
 position of ions in cartesian coordinates  (Angst):
   0.00000000  0.00000000  0.00000000
   1.40825000  1.40825000  1.40825000
 


--------------------------------------------------------------------------------------------------------


 k-point  1 :   0.0000 0.0000 0.0000  plane waves:     941
 k-point  2 :   0.3333 0.0000 0.0000  plane waves:     968
 k-point  3 :   0.3333 0.3333 0.0000  plane waves:     962
 k-point  4 :  -0.3333 0.3333 0.0000  plane waves:     981
 k-point  5 :   0.5000 0.5000 0.5000  plane waves:     978
 k-point  6 :   0.4737 0.4737 0.4737  plane waves:     969
 k-point  7 :   0.4474 0.4474 0.4474  plane waves:     969
 k-point  8 :   0.4211 0.4211 0.4211  plane waves:     969
 k-point  9 :   0.3947 0.3947 0.3947  plane waves:     954
 k-point 10 :   0.3684 0.3684 0.3684  plane waves:     965
 k-point 11 :   0.3421 0.3421 0.3421  plane waves:     968
 k-point 12 :   0.3158 0.3158 0.3158  plane waves:     968
 k-point 13 :   0.2895 0.2895 0.2895  plane waves:     956
 k-point 14 :   0.2632 0.2632 0.2632  plane waves:     959
 k-point 15 :   0.2368 0.2368 0.2368  plane waves:     959
 k-point 16 :   0.2105 0.2105 0.2105  plane waves:     956
 k-point 17 :   0.1842 0.1842 0.1842  plane waves:     950
 k-point 18 :   0.1579 0.1579 0.1579  plane waves:     953
 k-point 19 :   0.1316 0.1316 0.1316  plane waves:     953
 k-point 20 :   0.1053 0.1053 0.1053  plane waves:     950
 k-point 21 :   0.0789 0.0789 0.0789  plane waves:     950
 k-point 22 :   0.0526 0.0526 0.0526  plane waves:     944
 k-point 23 :   0.0263 0.0263 0.0263  plane waves:     941
 k-point 24 :   0.0000 0.0000 0.0000  plane waves:     941
 k-point 25 :   0.0000 0.0000 0.0000  plane waves:     941
 k-point 26 :   0.0263 0.0000 0.0263  plane waves:     941
 k-point 27 :   0.0526 0.0000 0.0526  plane waves:     945
 k-point 28 :   0.0789 0.0000 0.0789  plane waves:     953
 k-point 29 :   0.1053 0.0000 0.1053  plane waves:     953
 k-point 30 :   0.1316 0.0000 0.1316  plane waves:     950
 k-point 31 :   0.1579 0.0000 0.1579  plane waves:     962
 k-point 32 :   0.1842 0.0000 0.1842  plane waves:     966
 k-point 33 :   0.2105 0.0000 0.2105  plane waves:     966
 k-point 34 :   0.2368 0.0000 0.2368  plane waves:     982
 k-point 35 :   0.2632 0.0000 0.2632  plane waves:     982
 k-point 36 :   0.2895 0.0000 0.2895  plane waves:     974
 k-point 37 :   0.3158 0.0000 0.3158  plane waves:     974
 k-point 38 :   0.3421 0.0000 0.3421  plane waves:     966
 k-point 39 :   0.3684 0.0000 0.3684  plane waves:     974
 k-point 40 :   0.3947 0.0000 0.3947  plane waves:     978
 k-point 41 :   0.4211 0.0000 0.4211  plane waves:     978
 k-point 42 :   0.4474 0.0000 0.4474  plane waves:     974
 k-point 43 :   0.4737 0.0000 0.4737  plane waves:     982
 k-point 44 :   0.5000 0.0000 0.5000  plane waves:     982

 maximum and minimum number of plane-waves per node :       982      941

 maximum number of plane-waves:       982
 maximum index in each direction: 
   IXMAX=    7   IYMAX=    6   IZMAX=    6
   IXMIN=   -7   IYMIN=   -7   IZMIN=   -7


 serial   3D FFT for wavefunctions
 parallel 3D FFT for charge:
    minimum data exchange during FFTs selected (reduces bandwidth)

 
 Radii for the augmentation spheres in the non-local exchange
 for species   1 augmentation radius   1.454 (default was   1.163)
       energy cutoff for augmentation   1800.0
 Maximum index for augmentation-charges in exchange         3997
  SETUP_FOCK is finished

 total amount of memory used by VASP MPI-rank0    39736. kBytes
=======================================================================

   base      :      30000. kBytes
   nonl-proj :       4644. kBytes
   fftplans  :        272. kBytes
   grid      :        626. kBytes
   one-center:         16. kBytes
   HF        :         33. kBytes
   nonlr-proj:       1898. kBytes
   wavefun   :       2247. kBytes
 
     INWAV:  cpu time    0.1067: real time    0.2162
 initial charge density was supplied:
 number of electron       7.9999998 magnetization 
 keeping initial charge density in first step


--------------------------------------------------------------------------------------------------------


 Maximum index for augmentation-charges          721 (set IRDMAX)


--------------------------------------------------------------------------------------------------------


 First call to EWALD:  gamma=   0.499
 Maximum number of real-space cells 3x 3x 3
 Maximum number of reciprocal cells 3x 3x 3

    FEWALD:  cpu time    0.0015: real time    0.0107


--------------------------------------- Iteration      1(   1)  ---------------------------------------


    POTLOK:  cpu time    0.0101: real time    0.0205
    SETDIJ:  cpu time    0.1177: real time    0.2368
    TRIAL :  cpu time   73.3609: real time  146.7483
    CORREC:  cpu time    0.0005: real time    0.0089
    --------------------------------------------
      LOOP:  cpu time   73.4919: real time  147.0198

 eigenvalue-minimisations  :     0
 total energy-change (2. order) :-0.9909888E+01  (-0.4235778E-01)
 number of electron       7.9999998 magnetization 
 augmentation part        7.9999998 magnetization 

 Free energy of the ion-electron system (eV)
  ---------------------------------------------------
  alpha Z        PSCENC =        17.10940282
  Ewald energy   TEWEN  =      -220.32663596
  -Hartree energ DENC   =       -16.26781610
  -exchange      EXHF   =        10.83028233
  -V(xc)+E(xc)   XCENC  =       -12.10229726
  PAW double counting   =       487.35159492     -463.91085207
  entropy T*S    EENTRO =         0.00032211
  eigenvalues    EBANDS =       -19.95705820
  atomic energy  EATOM  =       207.36337913
  ---------------------------------------------------
  free energy    TOTEN  =        -9.90988848 eV

  energy without entropy =       -9.91021059  energy(sigma->0) =       -9.90999585
  exchange ACFDT corr.  =         0.00000574  see jH, gK, PRB 81, 115126


--------------------------------------------------------------------------------------------------------




--------------------------------------- Iteration      1(   2)  ---------------------------------------


    TRIAL :  cpu time   74.1594: real time  148.3634
    CORREC:  cpu time    0.0005: real time    0.0004
    --------------------------------------------
      LOOP:  cpu time   74.1612: real time  148.3744

 eigenvalue-minimisations  :     0
 total energy-change (2. order) :-0.3550662E-01  (-0.3094005E-01)
 number of electron       7.9999998 magnetization 
 augmentation part        7.9999998 magnetization 

 Free energy of the ion-electron system (eV)
  ---------------------------------------------------
  alpha Z        PSCENC =        17.10940282
  Ewald energy   TEWEN  =      -220.32663596
  -Hartree energ DENC   =       -16.26781610
  -exchange      EXHF   =        10.83793826
  -V(xc)+E(xc)   XCENC  =       -12.10229726
  PAW double counting   =       487.35159492     -463.91085207
  entropy T*S    EENTRO =         0.00032211
  eigenvalues    EBANDS =       -20.00043094
  atomic energy  EATOM  =       207.36337913
  ---------------------------------------------------
  free energy    TOTEN  =        -9.94539510 eV

  energy without entropy =       -9.94571721  energy(sigma->0) =       -9.94550247
  exchange ACFDT corr.  =         0.00000001  see jH, gK, PRB 81, 115126


--------------------------------------------------------------------------------------------------------




--------------------------------------- Iteration      1(   3)  ---------------------------------------


    TRIAL :  cpu time   74.2878: real time  148.6125
    CORREC:  cpu time    0.0003: real time    0.0003
    --------------------------------------------
      LOOP:  cpu time   74.2891: real time  148.6262

 eigenvalue-minimisations  :     0
 total energy-change (2. order) :-0.2381683E-01  (-0.1352150E-01)
 number of electron       7.9999998 magnetization 
 augmentation part        7.9999998 magnetization 

 Free energy of the ion-electron system (eV)
  ---------------------------------------------------
  alpha Z        PSCENC =        17.10940282
  Ewald energy   TEWEN  =      -220.32663596
  -Hartree energ DENC   =       -16.26781610
  -exchange      EXHF   =        10.84677810
  -V(xc)+E(xc)   XCENC  =       -12.10229726
  PAW double counting   =       487.35159492     -463.91085207
  entropy T*S    EENTRO =         0.00000000
  eigenvalues    EBANDS =       -20.03308761
  atomic energy  EATOM  =       207.36337913
  ---------------------------------------------------
  free energy    TOTEN  =        -9.96921193 eV

  energy without entropy =       -9.96921193  energy(sigma->0) =       -9.96921193
  exchange ACFDT corr.  =        -0.00000001  see jH, gK, PRB 81, 115126


--------------------------------------------------------------------------------------------------------




--------------------------------------- Iteration      1(   4)  ---------------------------------------


    TRIAL :  cpu time   74.1507: real time  148.3302
    CORREC:  cpu time    0.0004: real time    0.0090
    --------------------------------------------
      LOOP:  cpu time   74.1521: real time  148.3503

 eigenvalue-minimisations  :     0
 total energy-change (2. order) :-0.1061085E-01  (-0.5899644E-02)
 number of electron       7.9999998 magnetization 
 augmentation part        7.9999998 magnetization 

 Free energy of the ion-electron system (eV)
  ---------------------------------------------------
  alpha Z        PSCENC =        17.10940282
  Ewald energy   TEWEN  =      -220.32663596
  -Hartree energ DENC   =       -16.26781610
  -exchange      EXHF   =        10.85413638
  -V(xc)+E(xc)   XCENC  =       -12.10229726
  PAW double counting   =       487.35159492     -463.91085207
  entropy T*S    EENTRO =         0.00032211
  eigenvalues    EBANDS =       -20.05073464
  atomic energy  EATOM  =       207.36337913
  ---------------------------------------------------
  free energy    TOTEN  =        -9.97982279 eV

  energy without entropy =       -9.98014489  energy(sigma->0) =       -9.97993016
  exchange ACFDT corr.  =         0.00000000  see jH, gK, PRB 81, 115126


--------------------------------------------------------------------------------------------------------




--------------------------------------- Iteration      1(   5)  ---------------------------------------


    TRIAL :  cpu time   74.1578: real time  148.3697
    CORREC:  cpu time    0.0005: real time    0.0005
    --------------------------------------------
      LOOP:  cpu time   74.1603: real time  148.3994

 eigenvalue-minimisations  :     0
 total energy-change (2. order) :-0.4429024E-02  (-0.3213293E-02)
 number of electron       7.9999998 magnetization 
 augmentation part        7.9999998 magnetization 

 Free energy of the ion-electron system (eV)
  ---------------------------------------------------
  alpha Z        PSCENC =        17.10940282
  Ewald energy   TEWEN  =      -220.32663596
  -Hartree energ DENC   =       -16.26781610
  -exchange      EXHF   =        10.85953483
  -V(xc)+E(xc)   XCENC  =       -12.10229726
  PAW double counting   =       487.35159492     -463.91085207
  entropy T*S    EENTRO =         0.00032211
  eigenvalues    EBANDS =       -20.06088422
  atomic energy  EATOM  =       207.36337913
  ---------------------------------------------------
  free energy    TOTEN  =        -9.98425181 eV

  energy without entropy =       -9.98457392  energy(sigma->0) =       -9.98435918
  exchange ACFDT corr.  =        -0.00000000  see jH, gK, PRB 81, 115126


--------------------------------------------------------------------------------------------------------




--------------------------------------- Iteration      1(   6)  ---------------------------------------


    TRIAL :  cpu time   74.3134: real time  148.6738
    CORREC:  cpu time    0.0003: real time    0.0003
    --------------------------------------------
      LOOP:  cpu time   74.3145: real time  148.6836

 eigenvalue-minimisations  :     0
 total energy-change (2. order) :-0.2706098E-02  (-0.1844848E-02)
 number of electron       7.9999998 magnetization 
 augmentation part        7.9999998 magnetization 

 Free energy of the ion-electron system (eV)
  ---------------------------------------------------
  alpha Z        PSCENC =        17.10940282
  Ewald energy   TEWEN  =      -220.32663596
  -Hartree energ DENC   =       -16.26781610
  -exchange      EXHF   =        10.86327728
  -V(xc)+E(xc)   XCENC  =       -12.10229726
  PAW double counting   =       487.35159492     -463.91085207
  entropy T*S    EENTRO =         0.00000000
  eigenvalues    EBANDS =       -20.06733277
  atomic energy  EATOM  =       207.36337913
  ---------------------------------------------------
  free energy    TOTEN  =        -9.98695791 eV

  energy without entropy =       -9.98695791  energy(sigma->0) =       -9.98695791
  exchange ACFDT corr.  =         0.00000001  see jH, gK, PRB 81, 115126


--------------------------------------------------------------------------------------------------------




--------------------------------------- Iteration      1(   7)  ---------------------------------------


    TRIAL :  cpu time   73.1177: real time  146.2685
    CORREC:  cpu time    0.0005: real time    0.0005
    --------------------------------------------
      LOOP:  cpu time   73.1189: real time  146.2794

 eigenvalue-minimisations  :     0
 total energy-change (2. order) :-0.1859311E-02  (-0.9299337E-03)
 number of electron       7.9999998 magnetization 
 augmentation part        7.9999998 magnetization 

 Free energy of the ion-electron system (eV)
  ---------------------------------------------------
  alpha Z        PSCENC =        17.10940282
  Ewald energy   TEWEN  =      -220.32663596
  -Hartree energ DENC   =       -16.26781610
  -exchange      EXHF   =        10.86584638
  -V(xc)+E(xc)   XCENC  =       -12.10229726
  PAW double counting   =       487.35159492     -463.91085207
  entropy T*S    EENTRO =         0.00032211
  eigenvalues    EBANDS =       -20.07143908
  atomic energy  EATOM  =       207.36337913
  ---------------------------------------------------
  free energy    TOTEN  =        -9.98881722 eV

  energy without entropy =       -9.98913933  energy(sigma->0) =       -9.98892459
  exchange ACFDT corr.  =         0.00000000  see jH, gK, PRB 81, 115126


--------------------------------------------------------------------------------------------------------




--------------------------------------- Iteration      1(   8)  ---------------------------------------


    TRIAL :  cpu time   73.2919: real time  146.6164
    CORREC:  cpu time    0.0003: real time    0.0003
    --------------------------------------------
      LOOP:  cpu time   73.2931: real time  146.6244

 eigenvalue-minimisations  :     0
 total energy-change (2. order) :-0.4361855E-03  (-0.4203896E-03)
 number of electron       7.9999998 magnetization 
 augmentation part        7.9999998 magnetization 

 Free energy of the ion-electron system (eV)
  ---------------------------------------------------
  alpha Z        PSCENC =        17.10940282
  Ewald energy   TEWEN  =      -220.32663596
  -Hartree energ DENC   =       -16.26781610
  -exchange      EXHF   =        10.86766642
  -V(xc)+E(xc)   XCENC  =       -12.10229726
  PAW double counting   =       487.35159492     -463.91085207
  entropy T*S    EENTRO =         0.00000000
  eigenvalues    EBANDS =       -20.07401740
  atomic energy  EATOM  =       207.36337913
  ---------------------------------------------------
  free energy    TOTEN  =        -9.98925340 eV

  energy without entropy =       -9.98925340  energy(sigma->0) =       -9.98925340
  exchange ACFDT corr.  =         0.00000001  see jH, gK, PRB 81, 115126


--------------------------------------------------------------------------------------------------------




--------------------------------------- Iteration      1(   9)  ---------------------------------------


    TRIAL :  cpu time   73.3819: real time  146.7984
    CORREC:  cpu time    0.0005: real time    0.0005
    --------------------------------------------
      LOOP:  cpu time   73.3831: real time  146.8106

 eigenvalue-minimisations  :     0
 total energy-change (2. order) :-0.6656555E-03  (-0.1924641E-03)
 number of electron       7.9999998 magnetization 
 augmentation part        7.9999998 magnetization 

 Free energy of the ion-electron system (eV)
  ---------------------------------------------------
  alpha Z        PSCENC =        17.10940282
  Ewald energy   TEWEN  =      -220.32663596
  -Hartree energ DENC   =       -16.26781610
  -exchange      EXHF   =        10.86901521
  -V(xc)+E(xc)   XCENC  =       -12.10229726
  PAW double counting   =       487.35159492     -463.91085207
  entropy T*S    EENTRO =         0.00032211
  eigenvalues    EBANDS =       -20.07570974
  atomic energy  EATOM  =       207.36337913
  ---------------------------------------------------
  free energy    TOTEN  =        -9.98991906 eV

  energy without entropy =       -9.99024117  energy(sigma->0) =       -9.99002643
  exchange ACFDT corr.  =         0.00000000  see jH, gK, PRB 81, 115126


--------------------------------------------------------------------------------------------------------




--------------------------------------- Iteration      1(  10)  ---------------------------------------


    TRIAL :  cpu time   73.3014: real time  146.6475
    CORREC:  cpu time    0.0005: real time    0.0005
    --------------------------------------------
      LOOP:  cpu time   73.3027: real time  146.6579

 eigenvalue-minimisations  :     0
 total energy-change (2. order) : 0.1623910E-03  (-0.9182616E-04)
 number of electron       7.9999998 magnetization 
 augmentation part        7.9999998 magnetization 

 Free energy of the ion-electron system (eV)
  ---------------------------------------------------
  alpha Z        PSCENC =        17.10940282
  Ewald energy   TEWEN  =      -220.32663596
  -Hartree energ DENC   =       -16.26781610
  -exchange      EXHF   =        10.87002835
  -V(xc)+E(xc)   XCENC  =       -12.10229726
  PAW double counting   =       487.35159492     -463.91085207
  entropy T*S    EENTRO =         0.00032211
  eigenvalues    EBANDS =       -20.07688260
  atomic energy  EATOM  =       207.36337913
  ---------------------------------------------------
  free energy    TOTEN  =        -9.98975667 eV

  energy without entropy =       -9.99007878  energy(sigma->0) =       -9.98986404
  exchange ACFDT corr.  =         0.00000001  see jH, gK, PRB 81, 115126


--------------------------------------------------------------------------------------------------------




--------------------------------------- Iteration      1(  11)  ---------------------------------------


    TRIAL :  cpu time   73.2668: real time  146.5618
    CORREC:  cpu time    0.0005: real time    0.0005
    EDDIAG:  cpu time   73.3222: real time  146.7033
    --------------------------------------------
      LOOP:  cpu time  146.5903: real time  293.2770

 eigenvalue-minimisations  :     0
 total energy-change (2. order) :-0.7657560E-04  (-0.4324992E-04)
 number of electron       7.9999998 magnetization 
 augmentation part        7.9999998 magnetization 

 Free energy of the ion-electron system (eV)
  ---------------------------------------------------
  alpha Z        PSCENC =        17.10940282
  Ewald energy   TEWEN  =      -220.32663596
  -Hartree energ DENC   =       -16.26781610
  -exchange      EXHF   =        10.87131112
  -V(xc)+E(xc)   XCENC  =       -12.10229726
  PAW double counting   =       487.35159492     -463.91085207
  entropy T*S    EENTRO =         0.00032211
  eigenvalues    EBANDS =       -20.07770676
  atomic energy  EATOM  =       207.36337913
  ---------------------------------------------------
  free energy    TOTEN  =        -9.98983325 eV

  energy without entropy =       -9.99015535  energy(sigma->0) =       -9.98994061
  exchange ACFDT corr.  =         0.00000001  see jH, gK, PRB 81, 115126


--------------------------------------------------------------------------------------------------------


  average scaling for gradient   1.1569


 average (electrostatic) potential at core
  the test charge radii are     1.1631
  (the norm of the test charge is              1.0000)
       1 -29.5446       2 -29.5446
 
 
 
 E-fermi :   3.5778     XC(G=0):  -7.5878     alpha+bet : -9.2781


 k-point     1 :       0.0000    0.0000    0.0000
  band No.  band energies     occupation 
      1     -10.5362      2.00000
      2       3.5268      2.00002
      3       3.5268      2.00000
      4       3.5268      1.99997
      5       4.7985     -0.00000
      6       6.8380      0.00000
      7       6.8380      0.00000
      8       6.8380      0.00000
      9      10.9768      0.00000
     10      13.7109      0.00000
     11      13.7109      0.00000
     12      15.2919      0.00000
     13      15.2919      0.00000
     14      15.2919      0.00000
     15      18.3821      0.00000
     16      29.1804      0.00000
     17      29.1804      0.00000
     18      29.1804      0.00000
     19      30.3952      0.00000
     20      30.3952      0.00000
     21      30.3952      0.00000
     22      30.4396      0.00000
     23      30.4396      0.00000
     24      31.4101      0.00000
     25      31.4101      0.00000
     26      31.4101      0.00000
     27      39.6756      0.00000
     28      40.0830      0.00000
     29      40.0830      0.00000
     30      40.0830      0.00000
     31      42.8636      0.00000
     32      42.8636      0.00000
     33      43.4990      0.00000
     34      43.4990      0.00000
     35      44.9745      0.00000
     36      44.9745      0.00000
     37      44.9745      0.00000
     38      45.1905      0.00000
     39      45.4846      0.00000
     40      45.4846      0.00000
     41      45.4846      0.00000
     42      46.2114      0.00000
     43      46.2114      0.00000
     44      46.2114      0.00000
     45      46.6548      0.00000
     46      46.6548      0.00000
     47      46.6548      0.00000
     48      47.6289      0.00000
     49      47.6289      0.00000
     50      47.6289      0.00000
     51      51.0622      0.00000
     52      52.9702      0.00000
     53      52.9702      0.00000
     54      53.0452      0.00000
     55      53.0994      0.00000
     56      53.0996      0.00000

 k-point     2 :       0.3333    0.0000    0.0000
  band No.  band energies     occupation 
      1      -9.1133      2.00000
      2      -3.0062      2.00000
      3       2.2671      2.00000
      4       2.2671      2.00000
      5       4.8304     -0.00000
      6       8.1101      0.00000
      7       8.1101      0.00000
      8      11.6965      0.00000
      9      12.4381      0.00000
     10      13.3294      0.00000
     11      13.3294      0.00000
     12      17.3552      0.00000
     13      20.2180      0.00000
     14      20.2180      0.00000
     15      21.4977      0.00000
     16      21.7649      0.00000
     17      21.7649      0.00000
     18      24.9616      0.00000
     19      30.0484      0.00000
     20      30.3827      0.00000
     21      30.3827      0.00000
     22      31.4964      0.00000
     23      31.4964      0.00000
     24      32.4883      0.00000
     25      32.4960      0.00000
     26      32.4960      0.00000
     27      34.2116      0.00000
     28      36.9628      0.00000
     29      36.9628      0.00000
     30      37.5828      0.00000
     31      37.5828      0.00000
     32      37.7318      0.00000
     33      39.6210      0.00000
     34      40.3495      0.00000
     35      43.1332      0.00000
     36      43.1332      0.00000
     37      43.6195      0.00000
     38      43.6195      0.00000
     39      44.3202      0.00000
     40      46.0091      0.00000
     41      46.0091      0.00000
     42      46.2107      0.00000
     43      47.6227      0.00000
     44      50.9840      0.00000
     45      50.9840      0.00000
     46      52.4475      0.00000
     47      52.4475      0.00000
     48      53.6244      0.00000
     49      54.8379      0.00000
     50      54.8382      0.00000
     51      55.4997      0.00000
     52      57.8152      0.00000
     53      58.2469      0.00000
     54      58.3193      0.00000
     55      59.5406      0.00000
     56      59.7226      0.00000

 k-point     3 :       0.3333    0.3333    0.0000
  band No.  band energies     occupation 
      1      -8.5373      2.00000
      2      -3.0588      2.00000
      3       0.6821      2.00000
      4       0.6821      2.00000
      5       4.8304     -0.00000
      6       6.2406      0.00000
      7      11.9832      0.00000
      8      11.9832      0.00000
      9      13.2784      0.00000
     10      15.6546      0.00000
     11      16.7153      0.00000
     12      19.0436      0.00000
     13      19.0436      0.00000
     14      19.5079      0.00000
     15      20.1811      0.00000
     16      20.1811      0.00000
     17      21.4508      0.00000
     18      22.9709      0.00000
     19      28.4323      0.00000
     20      29.1862      0.00000
     21      29.5984      0.00000
     22      29.5984      0.00000
     23      30.5114      0.00000
     24      31.2867      0.00000
     25      32.5652      0.00000
     26      32.5652      0.00000
     27      33.7489      0.00000
     28      37.5105      0.00000
     29      38.5934      0.00000
     30      38.5934      0.00000
     31      39.7343      0.00000
     32      40.2965      0.00000
     33      41.7359      0.00000
     34      41.7359      0.00000
     35      42.0705      0.00000
     36      42.0798      0.00000
     37      42.0798      0.00000
     38      43.8759      0.00000
     39      44.5041      0.00000
     40      45.0699      0.00000
     41      45.4679      0.00000
     42      45.4679      0.00000
     43      47.3660      0.00000
     44      50.1000      0.00000
     45      51.5663      0.00000
     46      51.5663      0.00000
     47      52.7919      0.00000
     48      53.9087      0.00000
     49      54.4531      0.00000
     50      54.4531      0.00000
     51      54.7501      0.00000
     52      55.4104      0.00000
     53      59.4295      0.00000
     54      59.9307      0.00000
     55      59.9505      0.00000
     56      61.2404      0.00000

 k-point     4 :      -0.3333    0.3333    0.0000
  band No.  band energies     occupation 
      1      -7.1722      2.00000
      2      -4.9568      2.00000
      3      -1.2973      2.00000
      4       1.0074      2.00000
      5       5.6948      0.00000
      6      10.3589      0.00000
      7      11.0369      0.00000
      8      11.1066      0.00000
      9      11.6109      0.00000
     10      13.2108      0.00000
     11      18.4128      0.00000
     12      18.5210      0.00000
     13      20.5261      0.00000
     14      21.7215      0.00000
     15      21.9137      0.00000
     16      23.1039      0.00000
     17      23.3090      0.00000
     18      24.9901      0.00000
     19      26.3918      0.00000
     20      26.7773      0.00000
     21      26.7954      0.00000
     22      27.2391      0.00000
     23      29.8907      0.00000
     24      30.6770      0.00000
     25      30.7492      0.00000
     26      32.5816      0.00000
     27      33.2404      0.00000
     28      33.2971      0.00000
     29      37.9893      0.00000
     30      38.2580      0.00000
     31      38.4019      0.00000
     32      38.6272      0.00000
     33      39.0548      0.00000
     34      39.4885      0.00000
     35      42.6439      0.00000
     36      43.0452      0.00000
     37      44.4388      0.00000
     38      46.4729      0.00000
     39      46.8349      0.00000
     40      48.5235      0.00000
     41      48.8255      0.00000
     42      49.8317      0.00000
     43      50.3475      0.00000
     44      51.6277      0.00000
     45      51.7136      0.00000
     46      52.4174      0.00000
     47      52.4663      0.00000
     48      53.9394      0.00000
     49      54.3303      0.00000
     50      55.0210      0.00000
     51      55.9688      0.00000
     52      56.5460      0.00000
     53      57.3783      0.00000
     54      57.6435      0.00000
     55      59.1492      0.00000
     56      59.7354      0.00000

 k-point     5 :       0.5000    0.5000    0.5000
  band No.  band energies     occupation 
      1      -8.1825      2.00000
      2      -4.7404      2.00000
      3       1.9986      2.00000
      4       2.0037      2.00000
      5       4.5830     -0.00000
      6       8.0473      0.00000
      7       8.0508      0.00000
      8      11.5754      0.00000
      9      15.3467      0.00000
     10      15.8858      0.00000
     11      15.9201      0.00000
     12      16.2687      0.00000
     13      16.6489      0.00000
     14      16.6934      0.00000
     15      23.6790      0.00000
     16      24.7864      0.00000
     17      26.3330      0.00000
     18      26.3369      0.00000
     19      26.3436      0.00000
     20      26.4731      0.00000
     21      29.7717      0.00000
     22      30.9997      0.00000
     23      31.1735      0.00000
     24      31.3679      0.00000
     25      32.2873      0.00000
     26      32.3532      0.00000
     27      33.1097      0.00000
     28      36.2424      0.00000
     29      36.3634      0.00000
     30      36.6311      0.00000
     31      36.7438      0.00000
     32      37.4445      0.00000
     33      38.5963      0.00000
     34      40.6576      0.00000
     35      43.7485      0.00000
     36      44.3774      0.00000
     37      45.4723      0.00000
     38      49.0928      0.00000
     39      49.2478      0.00000
     40      49.9094      0.00000
     41      50.0510      0.00000
     42      51.6607      0.00000
     43      53.8042      0.00000
     44      54.8078      0.00000
     45      55.5403      0.00000
     46      56.6448      0.00000
     47      60.1689      0.00000
     48      61.7519      0.00000
     49      62.8504      0.00000
     50      63.9805      0.00000
     51      64.7789      0.00000
     52      68.7725      0.00000
     53      70.9583      0.00000
     54      72.2569      0.00000
     55      76.7716      0.00000
     56      84.9776      0.00000

 k-point     6 :       0.4737    0.4737    0.4737
  band No.  band energies     occupation 
      1      -8.2182      2.00000
      2      -4.6845      2.00000
      3       2.0054      2.00000
      4       2.0105      2.00000
      5       4.5892     -0.00000
      6       8.0514      0.00000
      7       8.0535      0.00000
      8      11.5852      0.00000
      9      15.0693      0.00000
     10      15.5982      0.00000
     11      15.6007      0.00000
     12      16.5599      0.00000
     13      16.9824      0.00000
     14      16.9887      0.00000
     15      23.2375      0.00000
     16      25.2606      0.00000
     17      25.5568      0.00000
     18      25.5597      0.00000
     19      27.1272      0.00000
     20      27.2681      0.00000
     21      29.1961      0.00000
     22      31.3165      0.00000
     23      31.3455      0.00000
     24      31.7233      0.00000
     25      32.1152      0.00000
     26      32.2167      0.00000
     27      33.0515      0.00000
     28      36.2348      0.00000
     29      36.4496      0.00000
     30      36.5815      0.00000
     31      36.9734      0.00000
     32      37.0678      0.00000
     33      38.8479      0.00000
     34      40.7970      0.00000
     35      43.7609      0.00000
     36      44.2974      0.00000
     37      45.4818      0.00000
     38      48.3922      0.00000
     39      48.8667      0.00000
     40      49.5877      0.00000
     41      49.9898      0.00000
     42      51.1098      0.00000
     43      53.9961      0.00000
     44      54.4723      0.00000
     45      55.0695      0.00000
     46      55.7621      0.00000
     47      59.5466      0.00000
     48      60.8513      0.00000
     49      62.6811      0.00000
     50      63.4520      0.00000
     51      64.6295      0.00000
     52      68.5863      0.00000
     53      69.1093      0.00000
     54      72.5880      0.00000
     55      77.2466      0.00000
     56      84.3935      0.00000

 k-point     7 :       0.4474    0.4474    0.4474
  band No.  band energies     occupation 
      1      -8.3187      2.00000
      2      -4.5235      2.00000
      3       2.0258      2.00000
      4       2.0308      2.00000
      5       4.6077     -0.00000
      6       8.0613      0.00000
      7       8.0630      0.00000
      8      11.6139      0.00000
      9      14.5673      0.00000
     10      15.1319      0.00000
     11      15.1333      0.00000
     12      17.0135      0.00000
     13      17.5253      0.00000
     14      17.5258      0.00000
     15      22.5587      0.00000
     16      24.7970      0.00000
     17      24.7972      0.00000
     18      26.0212      0.00000
     19      27.9190      0.00000
     20      28.0763      0.00000
     21      28.4576      0.00000
     22      31.2995      0.00000
     23      31.3358      0.00000
     24      32.2751      0.00000
     25      32.2961      0.00000
     26      32.3076      0.00000
     27      32.8140      0.00000
     28      36.2757      0.00000
     29      36.5764      0.00000
     30      36.6043      0.00000
     31      36.8271      0.00000
     32      37.1671      0.00000
     33      39.1692      0.00000
     34      40.8572      0.00000
     35      43.7666      0.00000
     36      44.2379      0.00000
     37      45.4748      0.00000
     38      47.4769      0.00000
     39      48.2095      0.00000
     40      49.9391      0.00000
     41      50.3949      0.00000
     42      50.4766      0.00000
     43      53.7862      0.00000
     44      54.5196      0.00000
     45      54.5888      0.00000
     46      55.6490      0.00000
     47      58.8291      0.00000
     48      59.9954      0.00000
     49      62.3428      0.00000
     50      62.4947      0.00000
     51      65.0339      0.00000
     52      67.7221      0.00000
     53      68.3601      0.00000
     54      72.7389      0.00000
     55      77.6923      0.00000
     56      83.6736      0.00000

 k-point     8 :       0.4211    0.4211    0.4211
  band No.  band energies     occupation 
      1      -8.4679      2.00000
      2      -4.2735      2.00000
      3       2.0598      2.00000
      4       2.0648      2.00000
      5       4.6384     -0.00000
      6       8.0758      0.00000
      7       8.0772      0.00000
      8      11.6595      0.00000
      9      14.0239      0.00000
     10      14.6611      0.00000
     11      14.6628      0.00000
     12      17.4360      0.00000
     13      18.1221      0.00000
     14      18.1224      0.00000
     15      21.9254      0.00000
     16      24.0508      0.00000
     17      24.0511      0.00000
     18      26.7390      0.00000
     19      27.8257      0.00000
     20      28.7014      0.00000
     21      28.8536      0.00000
     22      31.2709      0.00000
     23      31.3041      0.00000
     24      32.2126      0.00000
     25      32.2434      0.00000
     26      32.8919      0.00000
     27      32.9057      0.00000
     28      36.3718      0.00000
     29      36.6199      0.00000
     30      36.8076      0.00000
     31      36.8651      0.00000
     32      37.1777      0.00000
     33      39.5526      0.00000
     34      40.9976      0.00000
     35      43.7837      0.00000
     36      44.2347      0.00000
     37      45.4262      0.00000
     38      46.6046      0.00000
     39      47.4390      0.00000
     40      50.1519      0.00000
     41      50.2336      0.00000
     42      50.3740      0.00000
     43      53.3896      0.00000
     44      54.4124      0.00000
     45      54.6620      0.00000
     46      55.9539      0.00000
     47      57.7761      0.00000
     48      58.9411      0.00000
     49      61.7483      0.00000
     50      61.9684      0.00000
     51      65.0404      0.00000
     52      66.4873      0.00000
     53      68.5905      0.00000
     54      72.8108      0.00000
     55      78.3488      0.00000
     56      82.8032      0.00000

 k-point     9 :       0.3947    0.3947    0.3947
  band No.  band energies     occupation 
      1      -8.6481      2.00000
      2      -3.9526      2.00000
      3       2.1071      2.00000
      4       2.1121      2.00000
      5       4.6812     -0.00000
      6       8.0919      0.00000
      7       8.0932      0.00000
      8      11.7166      0.00000
      9      13.4795      0.00000
     10      14.2146      0.00000
     11      14.2162      0.00000
     12      17.7233      0.00000
     13      18.7467      0.00000
     14      18.7473      0.00000
     15      21.4510      0.00000
     16      23.3245      0.00000
     17      23.3249      0.00000
     18      26.6108      0.00000
     19      28.0570      0.00000
     20      29.4401      0.00000
     21      29.5970      0.00000
     22      31.2666      0.00000
     23      31.2935      0.00000
     24      32.1516      0.00000
     25      32.1718      0.00000
     26      32.7761      0.00000
     27      33.5854      0.00000
     28      36.5192      0.00000
     29      36.7277      0.00000
     30      37.0234      0.00000
     31      37.0407      0.00000
     32      37.2438      0.00000
     33      39.9728      0.00000
     34      41.0690      0.00000
     35      43.7969      0.00000
     36      44.2018      0.00000
     37      45.1503      0.00000
     38      45.8587      0.00000
     39      46.6629      0.00000
     40      49.6526      0.00000
     41      50.0019      0.00000
     42      50.6701      0.00000
     43      52.8268      0.00000
     44      54.6077      0.00000
     45      55.5912      0.00000
     46      55.8171      0.00000
     47      56.3527      0.00000
     48      57.3952      0.00000
     49      61.1801      0.00000
     50      62.2087      0.00000
     51      63.4195      0.00000
     52      65.4143      0.00000
     53      68.4475      0.00000
     54      72.7628      0.00000
     55      79.1725      0.00000
     56      81.7972      0.00000

 k-point    10 :       0.3684    0.3684    0.3684
  band No.  band energies     occupation 
      1      -8.8445      2.00000
      2      -3.5760      2.00000
      3       2.1684      2.00000
      4       2.1789      2.00000
      5       4.7300     -0.00000
      6       8.1046      0.00000
      7       8.1066      0.00000
      8      11.7696      0.00000
      9      12.9597      0.00000
     10      13.8029      0.00000
     11      13.8047      0.00000
     12      17.7595      0.00000
     13      19.3864      0.00000
     14      19.3874      0.00000
     15      21.2551      0.00000
     16      22.6230      0.00000
     17      22.6234      0.00000
     18      25.9281      0.00000
     19      28.8723      0.00000
     20      30.0432      0.00000
     21      30.1519      0.00000
     22      31.3374      0.00000
     23      31.4365      0.00000
     24      32.1342      0.00000
     25      32.1363      0.00000
     26      32.6438      0.00000
     27      34.0402      0.00000
     28      36.7114      0.00000
     29      36.9279      0.00000
     30      37.2770      0.00000
     31      37.2926      0.00000
     32      37.4752      0.00000
     33      40.3876      0.00000
     34      41.1976      0.00000
     35      43.8145      0.00000
     36      44.1096      0.00000
     37      44.4359      0.00000
     38      45.3489      0.00000
     39      46.1868      0.00000
     40      49.0256      0.00000
     41      49.7048      0.00000
     42      50.7816      0.00000
     43      52.2504      0.00000
     44      54.6446      0.00000
     45      54.6674      0.00000
     46      55.8093      0.00000
     47      56.0413      0.00000
     48      56.6408      0.00000
     49      60.3810      0.00000
     50      61.2998      0.00000
     51      62.1954      0.00000
     52      64.4519      0.00000
     53      68.7044      0.00000
     54      72.8979      0.00000
     55      79.8366      0.00000
     56      80.8215      0.00000

 k-point    11 :       0.3421    0.3421    0.3421
  band No.  band energies     occupation 
      1      -9.0461      2.00000
      2      -3.1548      2.00000
      3       2.2420      2.00000
      4       2.2526      2.00000
      5       4.7956     -0.00000
      6       8.1104      0.00000
      7       8.1122      0.00000
      8      11.7567      0.00000
      9      12.5270      0.00000
     10      13.4357      0.00000
     11      13.4372      0.00000
     12      17.4984      0.00000
     13      20.0219      0.00000
     14      20.0234      0.00000
     15      21.3911      0.00000
     16      21.9609      0.00000
     17      21.9622      0.00000
     18      25.1994      0.00000
     19      29.7648      0.00000
     20      30.3693      0.00000
     21      30.3895      0.00000
     22      31.4666      0.00000
     23      31.5686      0.00000
     24      32.3681      0.00000
     25      32.4228      0.00000
     26      32.4833      0.00000
     27      34.2385      0.00000
     28      36.9425      0.00000
     29      37.2062      0.00000
     30      37.5150      0.00000
     31      37.7746      0.00000
     32      37.8503      0.00000
     33      41.0475      0.00000
     34      41.2332      0.00000
     35      43.4655      0.00000
     36      43.6840      0.00000
     37      43.9768      0.00000
     38      44.9238      0.00000
     39      46.1403      0.00000
     40      48.3384      0.00000
     41      49.3727      0.00000
     42      50.9074      0.00000
     43      51.6709      0.00000
     44      54.0775      0.00000
     45      54.4708      0.00000
     46      55.3206      0.00000
     47      56.0476      0.00000
     48      57.0317      0.00000
     49      60.1849      0.00000
     50      60.3081      0.00000
     51      60.7500      0.00000
     52      63.8893      0.00000
     53      68.9651      0.00000
     54      72.9668      0.00000
     55      80.0272      0.00000
     56      80.1500      0.00000

 k-point    12 :       0.3158    0.3158    0.3158
  band No.  band energies     occupation 
      1      -9.2456      2.00000
      2      -2.6975      2.00000
      3       2.3276      2.00000
      4       2.3381      2.00000
      5       4.8721     -0.00000
      6       8.1020      0.00000
      7       8.1036      0.00000
      8      11.5088      0.00000
      9      12.3497      0.00000
     10      13.1208      0.00000
     11      13.1221      0.00000
     12      17.0271      0.00000
     13      20.5410      0.00000
     14      20.5432      0.00000
     15      21.4595      0.00000
     16      21.4617      0.00000
     17      21.7520      0.00000
     18      24.4840      0.00000
     19      30.4343      0.00000
     20      30.4500      0.00000
     21      30.6716      0.00000
     22      31.4789      0.00000
     23      31.5222      0.00000
     24      32.3850      0.00000
     25      32.9124      0.00000
     26      33.0903      0.00000
     27      34.2210      0.00000
     28      37.2052      0.00000
     29      37.5051      0.00000
     30      37.7656      0.00000
     31      38.2172      0.00000
     32      38.4242      0.00000
     33      41.5863      0.00000
     34      41.7623      0.00000
     35      41.9512      0.00000
     36      43.2829      0.00000
     37      43.9431      0.00000
     38      44.6639      0.00000
     39      46.1690      0.00000
     40      47.6600      0.00000
     41      48.9866      0.00000
     42      50.7553      0.00000
     43      51.1751      0.00000
     44      53.3644      0.00000
     45      54.4978      0.00000
     46      54.4999      0.00000
     47      56.0670      0.00000
     48      56.8723      0.00000
     49      58.7522      0.00000
     50      59.3690      0.00000
     51      59.9403      0.00000
     52      63.4509      0.00000
     53      68.8884      0.00000
     54      73.1815      0.00000
     55      79.6247      0.00000
     56      80.0008      0.00000

 k-point    13 :       0.2895    0.2895    0.2895
  band No.  band energies     occupation 
      1      -9.4379      2.00000
      2      -2.2100      2.00000
      3       2.4245      2.00000
      4       2.4349      2.00000
      5       4.9585      0.00000
      6       8.0725      0.00000
      7       8.0740      0.00000
      8      11.0608      0.00000
      9      12.3888      0.00000
     10      12.8658      0.00000
     11      12.8674      0.00000
     12      16.4592      0.00000
     13      20.3665      0.00000
     14      20.3669      0.00000
     15      21.6832      0.00000
     16      21.6868      0.00000
     17      22.2378      0.00000
     18      23.8146      0.00000
     19      30.4040      0.00000
     20      30.4225      0.00000
     21      31.4013      0.00000
[...]
     45      53.6369      0.00000
     46      54.3690      0.00000
     47      56.1150      0.00000
     48      59.7858      0.00000
     49      61.1323      0.00000
     50      61.4193      0.00000
     51      65.5190      0.00000
     52      67.7380      0.00000
     53      68.5683      0.00000
     54      71.4114      0.00000
     55      73.1926      0.00000
     56      87.1617      0.00000

 k-point    39 :       0.3684    0.0000    0.3684
  band No.  band energies     occupation 
      1      -8.1032      2.00000
      2      -3.7517      2.00000
      3       0.4848      2.00000
      4       0.4854      2.00000
      5       4.7483     -0.00000
      6       5.8689      0.00000
      7      12.6604      0.00000
      8      12.6670      0.00000
      9      14.0191      0.00000
     10      16.0844      0.00000
     11      17.2932      0.00000
     12      19.1879      0.00000
     13      19.1922      0.00000
     14      20.0351      0.00000
     15      20.0675      0.00000
     16      20.2017      0.00000
     17      20.6556      0.00000
     18      22.5946      0.00000
     19      28.1888      0.00000
     20      28.8561      0.00000
     21      29.4265      0.00000
     22      30.1572      0.00000
     23      31.0751      0.00000
     24      32.0872      0.00000
     25      32.2009      0.00000
     26      32.7410      0.00000
     27      33.2266      0.00000
     28      37.9924      0.00000
     29      40.0808      0.00000
     30      40.4365      0.00000
     31      41.5556      0.00000
     32      43.0330      0.00000
     33      43.1194      0.00000
     34      44.2541      0.00000
     35      44.2618      0.00000
     36      44.3713      0.00000
     37      44.3932      0.00000
     38      44.6386      0.00000
     39      47.4271      0.00000
     40      49.0953      0.00000
     41      50.1743      0.00000
     42      51.0742      0.00000
     43      52.7666      0.00000
     44      53.2631      0.00000
     45      54.1884      0.00000
     46      55.1538      0.00000
     47      57.0805      0.00000
     48      61.1790      0.00000
     49      61.5179      0.00000
     50      63.6374      0.00000
     51      66.8634      0.00000
     52      69.2141      0.00000
     53      69.9955      0.00000
     54      71.6605      0.00000
     55      72.4758      0.00000
     56      87.2220      0.00000

 k-point    40 :       0.3947    0.0000    0.3947
  band No.  band energies     occupation 
      1      -7.7524      2.00000
      2      -4.2584      2.00000
      3       0.3653      2.00000
      4       0.3655      2.00000
      5       4.7220     -0.00000
      6       5.6188      0.00000
      7      13.1543      0.00000
      8      13.1604      0.00000
      9      14.5787      0.00000
     10      16.4353      0.00000
     11      17.5329      0.00000
     12      18.6176      0.00000
     13      18.6219      0.00000
     14      20.1028      0.00000
     15      20.6728      0.00000
     16      20.7050      0.00000
     17      20.8199      0.00000
     18      22.5505      0.00000
     19      27.2521      0.00000
     20      27.8046      0.00000
     21      28.7191      0.00000
     22      29.4603      0.00000
     23      29.9822      0.00000
     24      32.9811      0.00000
     25      33.0356      0.00000
     26      33.0366      0.00000
     27      33.1939      0.00000
     28      38.0614      0.00000
     29      40.0588      0.00000
     30      40.2709      0.00000
     31      40.8372      0.00000
     32      41.4677      0.00000
     33      43.3666      0.00000
     34      43.4547      0.00000
     35      44.3623      0.00000
     36      44.5972      0.00000
     37      44.5981      0.00000
     38      44.9930      0.00000
     39      48.4014      0.00000
     40      49.1555      0.00000
     41      50.2972      0.00000
     42      51.4611      0.00000
     43      53.5235      0.00000
     44      54.1811      0.00000
     45      54.7411      0.00000
     46      56.3669      0.00000
     47      58.1778      0.00000
     48      62.4219      0.00000
     49      62.7814      0.00000
     50      64.6044      0.00000
     51      69.3160      0.00000
     52      70.5509      0.00000
     53      71.1905      0.00000
     54      72.3885      0.00000
     55      73.0104      0.00000
     56      87.5703      0.00000

 k-point    41 :       0.4211    0.0000    0.4211
  band No.  band energies     occupation 
      1      -7.3802      2.00000
      2      -4.7523      2.00000
      3       0.2722      2.00000
      4       0.2724      2.00000
      5       4.7247     -0.00000
      6       5.3969      0.00000
      7      13.6251      0.00000
      8      13.6309      0.00000
      9      15.1298      0.00000
     10      16.8100      0.00000
     11      17.5658      0.00000
     12      18.0772      0.00000
     13      18.0786      0.00000
     14      19.5525      0.00000
     15      21.3876      0.00000
     16      21.4084      0.00000
     17      21.4700      0.00000
     18      22.7496      0.00000
     19      26.3357      0.00000
     20      26.7868      0.00000
     21      27.9793      0.00000
     22      28.5012      0.00000
     23      29.8270      0.00000
     24      32.9508      0.00000
     25      33.4039      0.00000
     26      33.6507      0.00000
     27      33.7786      0.00000
     28      38.1739      0.00000
     29      40.0337      0.00000
     30      40.0920      0.00000
     31      40.1707      0.00000
     32      41.4256      0.00000
     33      43.2837      0.00000
     34      43.3320      0.00000
     35      43.8002      0.00000
     36      44.8349      0.00000
     37      45.2351      0.00000
     38      45.3499      0.00000
     39      45.3562      0.00000
     40      49.8361      0.00000
     41      52.2771      0.00000
     42      52.8045      0.00000
     43      54.2192      0.00000
     44      55.2204      0.00000
     45      55.4804      0.00000
     46      57.3269      0.00000
     47      58.9915      0.00000
     48      63.5185      0.00000
     49      63.7297      0.00000
     50      65.7396      0.00000
     51      71.2966      0.00000
     52      71.7309      0.00000
     53      72.2533      0.00000
     54      72.6473      0.00000
     55      73.1428      0.00000
     56      87.3376      0.00000

 k-point    42 :       0.4474    0.0000    0.4474
  band No.  band energies     occupation 
      1      -6.9877      2.00000
      2      -5.2321      2.00000
      3       0.2056      2.00000
      4       0.2058      2.00000
      5       4.7579     -0.00000
      6       5.2056      0.00000
      7      14.0476      0.00000
      8      14.0523      0.00000
      9      15.6664      0.00000
     10      17.2088      0.00000
     11      17.4101      0.00000
     12      17.5887      0.00000
     13      17.6041      0.00000
     14      19.0357      0.00000
     15      22.1376      0.00000
     16      22.1510      0.00000
     17      22.1679      0.00000
     18      23.1774      0.00000
     19      25.4468      0.00000
     20      25.8442      0.00000
     21      26.4797      0.00000
     22      26.8506      0.00000
     23      31.1133      0.00000
     24      32.6924      0.00000
     25      33.7237      0.00000
     26      33.7540      0.00000
     27      35.1184      0.00000
     28      38.2512      0.00000
     29      39.6741      0.00000
     30      39.9236      0.00000
     31      40.0033      0.00000
     32      42.9488      0.00000
     33      42.9615      0.00000
     34      43.0918      0.00000
     35      43.4508      0.00000
     36      44.6704      0.00000
     37      44.9659      0.00000
     38      45.0376      0.00000
     39      45.8692      0.00000
     40      49.8478      0.00000
     41      53.4130      0.00000
     42      53.7961      0.00000
     43      54.4471      0.00000
     44      56.1625      0.00000
     45      56.5367      0.00000
     46      58.2300      0.00000
     47      59.8433      0.00000
     48      64.3561      0.00000
     49      64.8222      0.00000
     50      65.7599      0.00000
     51      72.4709      0.00000
     52      72.8051      0.00000
     53      73.0942      0.00000
     54      73.1565      0.00000
     55      74.4346      0.00000
     56      87.2009      0.00000

 k-point    43 :       0.4737    0.0000    0.4737
  band No.  band energies     occupation 
      1      -6.5756      2.00000
      2      -5.6967      2.00000
      3       0.1656      2.00000
      4       0.1657      2.00000
      5       4.8221      0.00000
      6       5.0457      0.00000
      7      14.3692      0.00000
      8      14.3717      0.00000
      9      16.1805      0.00000
     10      17.1214      0.00000
     11      17.2089      0.00000
     12      17.2857      0.00000
     13      17.5962      0.00000
     14      18.5423      0.00000
     15      22.9185      0.00000
     16      22.9191      0.00000
     17      22.9253      0.00000
     18      23.7777      0.00000
     19      24.5839      0.00000
     20      24.9450      0.00000
     21      25.4071      0.00000
     22      25.7892      0.00000
     23      31.5484      0.00000
     24      32.4047      0.00000
     25      34.0014      0.00000
     26      34.0309      0.00000
     27      36.2887      0.00000
     28      38.2991      0.00000
     29      39.4012      0.00000
     30      39.6156      0.00000
     31      40.0163      0.00000
     32      42.4888      0.00000
     33      43.0228      0.00000
     34      43.0507      0.00000
     35      43.1553      0.00000
     36      43.1894      0.00000
     37      45.0687      0.00000
     38      45.9928      0.00000
     39      46.4472      0.00000
     40      51.4601      0.00000
     41      54.1003      0.00000
     42      54.7524      0.00000
     43      54.9859      0.00000
     44      57.2098      0.00000
     45      58.1226      0.00000
     46      58.8965      0.00000
     47      60.6796      0.00000
     48      65.1591      0.00000
     49      66.2011      0.00000
     50      66.4612      0.00000
     51      71.5626      0.00000
     52      72.7627      0.00000
     53      74.3129      0.00000
     54      74.7581      0.00000
     55      76.2262      0.00000
     56      87.1740      0.00000

 k-point    44 :       0.5000    0.0000    0.5000
  band No.  band energies     occupation 
      1      -6.1449      2.00000
      2      -6.1449      2.00000
      3       0.1523      2.00000
      4       0.1523      2.00000
      5       4.9179      0.00000
      6       4.9180      0.00000
      7      14.4997      0.00000
      8      14.5014      0.00000
      9      16.6616      0.00000
     10      16.7144      0.00000
     11      17.0641      0.00000
     12      17.1135      0.00000
     13      18.0726      0.00000
     14      18.0731      0.00000
     15      23.7058      0.00000
     16      23.7207      0.00000
     17      23.7454      0.00000
     18      23.8678      0.00000
     19      24.0767      0.00000
     20      24.3787      0.00000
     21      24.4212      0.00000
     22      24.8082      0.00000
     23      31.9093      0.00000
     24      32.1162      0.00000
     25      34.2472      0.00000
     26      34.2772      0.00000
     27      37.4180      0.00000
     28      38.2536      0.00000
     29      39.2191      0.00000
     30      39.3981      0.00000
     31      40.0403      0.00000
     32      41.6542      0.00000
     33      41.8179      0.00000
     34      43.1108      0.00000
     35      43.2458      0.00000
     36      43.4131      0.00000
     37      45.8538      0.00000
     38      46.3962      0.00000
     39      47.1790      0.00000
     40      51.9584      0.00000
     41      54.5573      0.00000
     42      55.1313      0.00000
     43      55.4585      0.00000
     44      58.2415      0.00000
     45      59.0636      0.00000
     46      60.0264      0.00000
     47      61.4582      0.00000
     48      65.2941      0.00000
     49      65.5304      0.00000
     50      68.4999      0.00000
     51      71.1156      0.00000
     52      71.9011      0.00000
     53      75.0471      0.00000
     54      76.2278      0.00000
     55      78.3128      0.00000
     56      87.2787      0.00000


--------------------------------------------------------------------------------------------------------


 soft charge-density along one line, spin component           1
         0         1         2         3         4         5         6         7         8         9
 total charge-density along one line
 
 pseudopotential strength for first ion, spin component:           1
 13.210   0.000  16.472  -0.000   0.000   0.000   0.000   0.000   0.000  -0.000   0.000   0.000   0.000   0.000   0.000  -0.000
 16.472   0.000  20.548  -0.000   0.000   0.000   0.000   0.000   0.000  -0.000   0.000   0.000   0.000   0.000   0.000  -0.000
  0.000  -0.000   0.000  -0.000   2.931   0.000   0.000  -0.000   0.000  -0.000   5.007  -0.000   0.000  -0.000   0.000  -0.000
  0.000  -0.000   0.000  -0.000   0.000   0.000   2.931   0.000   0.000  -0.000   0.000   0.000   5.007  -0.000   0.000  -0.000
  0.000   0.000   0.000   0.000   0.000   0.000   0.000   0.000   2.931   0.000   0.000   0.000   0.000   0.000   5.007  -0.000
  0.000  -0.000   0.000  -0.000   5.007   0.000   0.000  -0.000   0.000  -0.000   8.600  -0.000   0.000  -0.000   0.000  -0.000
  0.000  -0.000   0.000  -0.000   0.000   0.000   5.007   0.000   0.000  -0.000   0.000   0.000   8.600  -0.000   0.000  -0.000
  0.000   0.000   0.000   0.000   0.000   0.000   0.000   0.000   5.007   0.000   0.000   0.000   0.000   0.000   8.600  -0.000
  0.000   0.000   0.000   0.000   0.000   0.000  -0.000   0.000   0.000  -0.000   0.000   0.000  -0.001   0.000   0.000  -0.000
  0.000  -0.000   0.000  -0.000   0.000   0.000   0.000  -0.000  -0.000   0.000   0.000   0.000   0.000  -0.000  -0.001   0.000
 -0.000  -0.000  -0.000  -0.000  -0.000   0.000   0.000   0.000  -0.000  -0.000  -0.000   0.000   0.000   0.000  -0.000  -0.000
  0.000   0.000   0.000   0.000  -0.000   0.000   0.000  -0.000   0.000   0.000  -0.001   0.000   0.000  -0.000   0.000   0.000
  0.000   0.000   0.000   0.000  -0.000   0.000   0.000  -0.000   0.000  -0.000  -0.000   0.000   0.000  -0.000   0.000  -0.000
 total augmentation occupancy for first ion, spin component:           1
  2.000   0.000   0.000   0.000   0.000   0.000   0.000   0.000   0.000   0.000   0.000   0.000   0.000
  0.000   0.000   0.000   0.000   0.000   0.000   0.000   0.000   0.000   0.000   0.000   0.000   0.000
  0.000   0.000   0.667   0.000   0.000   0.000   0.000   0.000   0.000   0.000   0.000   0.000   0.000
  0.000   0.000   0.000   0.667   0.000   0.000   0.000   0.000   0.000   0.000   0.000   0.000   0.000
  0.000   0.000   0.000   0.000   0.667   0.000   0.000   0.000   0.000   0.000   0.000   0.000   0.000
  0.000   0.000   0.000   0.000   0.000   0.000   0.000   0.000   0.000   0.000   0.000   0.000   0.000
  0.000   0.000   0.000   0.000   0.000   0.000   0.000   0.000   0.000   0.000   0.000   0.000   0.000
  0.000   0.000   0.000   0.000   0.000   0.000   0.000   0.000   0.000   0.000   0.000   0.000   0.000
  0.000   0.000   0.000   0.000   0.000   0.000   0.000   0.000   0.000   0.000   0.000   0.000   0.000
  0.000   0.000   0.000   0.000   0.000   0.000   0.000   0.000   0.000   0.000   0.000   0.000   0.000
  0.000   0.000   0.000   0.000   0.000   0.000   0.000   0.000   0.000   0.000   0.000   0.000   0.000
  0.000   0.000   0.000   0.000   0.000   0.000   0.000   0.000   0.000   0.000   0.000   0.000   0.000
  0.000   0.000   0.000   0.000   0.000   0.000   0.000   0.000   0.000   0.000   0.000   0.000   0.000


------------------------ aborting loop because EDIFF is reached ----------------------------------------


    CHARGE:  cpu time    0.0139: real time    0.0264
    FORLOC:  cpu time    0.0002: real time    0.0002
    FORHF :  cpu time  106.9497: real time  213.9423
    FORNL :  cpu time    0.0181: real time    0.0311
    FORCOR:  cpu time    0.1211: real time    0.2425
    FORHAR:  cpu time    0.0012: real time    0.0098
    OFIELD:  cpu time    0.0000: real time    0.0000

 VOLUME and BASIS-vectors are now :
 -----------------------------------------------------------------------------
  energy-cutoff  :      450.00
  volume of cell :       44.68
      direct lattice vectors                 reciprocal lattice vectors
     0.000000000  2.816500000  2.816500000    -0.177525297  0.177525297  0.177525297
     2.816500000  0.000000000  2.816500000     0.177525297 -0.177525297  0.177525297
     2.816500000  2.816500000  0.000000000     0.177525297  0.177525297 -0.177525297

  length of vectors
     3.983132498  3.983132498  3.983132498     0.307482835  0.307482835  0.307482835


 FORCES acting on ions
    electron-ion (+dipol)            ewald-force                    non-local-force                 convergence-correction
 -----------------------------------------------------------------------------------------------
   0.252E-05 -.493E-05 -.977E-06   0.204E-14 0.421E-14 0.352E-14   0.312E-16 -.104E-16 0.623E-17   0.183E-05 0.176E-05 0.175E-05
   -.470E-05 0.636E-05 0.459E-06   -.214E-14 -.407E-14 -.341E-14   -.347E-16 0.347E-17 -.363E-17   -.259E-05 -.114E-05 -.184E-05
 -----------------------------------------------------------------------------------------------
   -.217E-05 0.143E-05 -.519E-06   -.101E-15 0.144E-15 0.110E-15   -.347E-17 -.694E-17 0.260E-17   -.752E-06 0.614E-06 -.897E-07
 
 
 POSITION                                       TOTAL-FORCE (eV/Angst)
 -----------------------------------------------------------------------------------
      0.00000      0.00000      0.00000        -0.000000      0.000000     -0.000000
      1.40825      1.40825      1.40825         0.000000     -0.000000      0.000000
 -----------------------------------------------------------------------------------
    total drift:                               -0.000003      0.000002     -0.000001


--------------------------------------------------------------------------------------------------------



  FREE ENERGIE OF THE ION-ELECTRON SYSTEM (eV)
  ---------------------------------------------------
  free  energy   TOTEN  =        -9.98983325 eV

  energy  without entropy=       -9.99015535  energy(sigma->0) =       -9.98994061
 


--------------------------------------------------------------------------------------------------------


    POTLOK:  cpu time    0.1215: real time    0.2408


--------------------------------------------------------------------------------------------------------


     LOOP+:  cpu time  991.4931: real time 1983.6339
    4ORBIT:  cpu time    0.0000: real time    0.0000

 total amount of memory used by VASP MPI-rank0    40156. kBytes
=======================================================================

   base      :      30000. kBytes
   nonl-proj :       4644. kBytes
   fftplans  :        272. kBytes
   grid      :        626. kBytes
   one-center:         16. kBytes
   HF        :         33. kBytes
   nonlr-proj:       2318. kBytes
   wavefun   :       2247. kBytes
 
  
  
 General timing and accounting informations for this job:
 ========================================================
  
                  Total CPU time used (sec):     1011.901
                            User time (sec):      994.461
                          System time (sec):       17.439
                         Elapsed time (sec):     2024.515
  
                   Maximum memory used (kb):      199692.
                   Average memory used (kb):           0.
  
                          Minor page faults:      2374306
                          Major page faults:            0
                 Voluntary context switches:          851
