 running on   56 total cores
 distrk:  each k-point on   56 cores,    1 groups
 distr:  one band on    1 cores,   56 groups
 using from now: INCAR     
 vasp.5.4.4.18Apr17-6-g9f103f2a35 (build Nov 08 2017 12:56:59) complex          
  
 POSCAR found type information on POSCAR  Ge
 POSCAR found :  1 types and       2 ions
 scaLAPACK will be used

 ----------------------------------------------------------------------------- 
|                                                                             |
|           W    W    AA    RRRRR   N    N  II  N    N   GGGG   !!!           |
|           W    W   A  A   R    R  NN   N  II  NN   N  G    G  !!!           |
|           W    W  A    A  R    R  N N  N  II  N N  N  G       !!!           |
|           W WW W  AAAAAA  RRRRR   N  N N  II  N  N N  G  GGG   !            |
|           WW  WW  A    A  R   R   N   NN  II  N   NN  G    G                |
|           W    W  A    A  R    R  N    N  II  N    N   GGGG   !!!           |
|                                                                             |
|      For optimal performance we recommend to set                            |
|        NCORE= 4 - approx SQRT( number of cores)                             |
|      NCORE specifies how many cores store one orbital (NPAR=cpu/NCORE).     |
|      This setting can  greatly improve the performance of VASP for DFT.     |
|      The default,   NCORE=1            might be grossly inefficient         |
|      on modern multi-core architectures or massively parallel machines.     |
|      Do your own testing !!!!                                               |
|      Unfortunately you need to use the default for GW and RPA calculations. |
|      (for HF NCORE is supported but not extensively tested yet)             |
|                                                                             |
 ----------------------------------------------------------------------------- 

 LDA part: xc-table for Pade appr. of Perdew

 ----------------------------------------------------------------------------- 
|                                                                             |
|           W    W    AA    RRRRR   N    N  II  N    N   GGGG   !!!           |
|           W    W   A  A   R    R  NN   N  II  NN   N  G    G  !!!           |
|           W    W  A    A  R    R  N N  N  II  N N  N  G       !!!           |
|           W WW W  AAAAAA  RRRRR   N  N N  II  N  N N  G  GGG   !            |
|           WW  WW  A    A  R   R   N   NN  II  N   NN  G    G                |
|           W    W  A    A  R    R  N    N  II  N    N   GGGG   !!!           |
|                                                                             |
|      Your generating k-point grid is not commensurate to the symmetry       |
|      of the lattice.  This can cause   slow convergence with respect        |
|      to k-points for HF type calculations                                   |
|      suggested SOLUTIONS:                                                   |
|       ) if not already the case, use automatic k-point generation           |
|       ) shift your grid to Gamma (G) (e.g. required for hex or fcc lattice) |
|                                                                             |
 ----------------------------------------------------------------------------- 

 found WAVECAR, reading the header
  number of k-points has changed, file:     4 present:    44
  trying to continue reading WAVECAR, but it might fail
 WARNING: stress and forces are not correct
 POSCAR, INCAR and KPOINTS ok, starting setup
 FFT: planning ...
 reading WAVECAR
 the WAVECAR file was read successfully
 reading imaginary part of occupancies ...
 charge-density read from file: unknown                                 
 entering main loop
       N       E                     dE             d eps       ncg     rms          ort
 gam= 0.000 g(H,U,f)=  0.727E-01 0.343E-01-0.102E-02 ort(H,U,f) = 0.000E+00 0.000E+00 0.000E+00
SDA:   1    -0.990988848122E+01   -0.99099E+01   -0.42358E-01  2464   0.106E+00 0.000E+00
 gam= 0.382 g(H,U,f)=  0.259E-01 0.240E-01 0.181E-09 ort(H,U,f) = 0.440E-01 0.280E-01-0.144E-09
DMP:   2    -0.994539510235E+01   -0.35507E-01   -0.30940E-01  2464   0.499E-01 0.720E-01
 gam= 0.382 g(H,U,f)=  0.350E-02 0.143E-01 0.187E-09 ort(H,U,f) = 0.160E-01 0.260E-01-0.124E-09
DMP:   3    -0.996921193258E+01   -0.23817E-01   -0.13521E-01  2464   0.178E-01 0.420E-01
 gam= 0.382 g(H,U,f)=  0.151E-03 0.779E-02-0.210E-15 ort(H,U,f) = 0.363E-03 0.175E-01-0.482E-15
DMP:   4    -0.997982278672E+01   -0.10611E-01   -0.58996E-02  2464   0.794E-02 0.178E-01
 gam= 0.382 g(H,U,f)=  0.525E-03 0.404E-02 0.335E-11 ort(H,U,f) =-0.112E-02 0.102E-01 0.218E-11
DMP:   5    -0.998425181030E+01   -0.44290E-02   -0.32133E-02  2464   0.456E-02 0.909E-02
 gam= 0.382 g(H,U,f)=  0.488E-03 0.201E-02 0.141E-11 ort(H,U,f) = 0.519E-05 0.552E-02 0.224E-11
DMP:   6    -0.998695790828E+01   -0.27061E-02   -0.18448E-02  2464   0.250E-02 0.553E-02
 gam= 0.382 g(H,U,f)=  0.171E-03 0.975E-03-0.172E-13 ort(H,U,f) = 0.245E-03 0.284E-02-0.530E-13
DMP:   7    -0.998881721947E+01   -0.18593E-02   -0.92993E-03  2464   0.115E-02 0.308E-02
 gam= 0.382 g(H,U,f)=  0.269E-04 0.463E-03 0.253E-12 ort(H,U,f) = 0.618E-04 0.141E-02 0.219E-12
DMP:   8    -0.998925340494E+01   -0.43619E-03   -0.42039E-03  2464   0.489E-03 0.147E-02
 gam= 0.382 g(H,U,f)=  0.101E-04 0.216E-03-0.178E-20 ort(H,U,f) =-0.120E-04 0.680E-03-0.606E-20
DMP:   9    -0.998991906044E+01   -0.66566E-03   -0.19246E-03  2464   0.226E-03 0.668E-03
 gam= 0.382 g(H,U,f)=  0.857E-05 0.996E-04 0.902E-13 ort(H,U,f) =-0.409E-05 0.322E-03-0.231E-12
DMP:  10    -0.998975666948E+01    0.16239E-03   -0.91826E-04  2464   0.108E-03 0.318E-03
 gam= 0.382 g(H,U,f)=  0.394E-05 0.456E-04 0.656E-13 ort(H,U,f) = 0.334E-05 0.150E-03 0.120E-13
DMP:  11    -0.998983324508E+01   -0.76576E-04   -0.43250E-04  2464   0.495E-04 0.153E-03
 final diagonalization
   1 F= -.99898332E+01 E0= -.99899406E+01  d E =0.322106E-03
