<?xml version="1.0" encoding="ISO-8859-1"?>
<modeling>
 <generator>
  <i name="program" type="string">vasp </i>
  <i name="version" type="string">5.4.4.18Apr17-6-g9f103f2a35  </i>
  <i name="subversion" type="string">(build Nov 08 2017 12:56:59) complex            parallel </i>
  <i name="platform" type="string">LinuxIFC </i>
  <i name="date" type="string">2019 08 06 </i>
  <i name="time" type="string">14:24:53 </i>
 </generator>
 <incar>
  <i type="string" name="SYSTEM">Ge1_ICSD_181070</i>
  <i type="int" name="ISTART">     1</i>
  <i type="string" name="PREC">normal</i>
  <i type="string" name="ALGO"> Damped</i>
  <i type="logical" name="LDIAG"> T  </i>
  <i name="AMIX">      0.20000000</i>
  <i name="BMIX">      0.00001000</i>
  <i name="AMIX_MAG">      0.80000000</i>
  <i name="BMIX_MAG">      0.00001000</i>
  <i name="EDIFF">      0.00000100</i>
  <i type="int" name="ISYM">     2</i>
  <i name="ENMAX">    574.59500000</i>
  <i type="int" name="NBANDS">    43</i>
  <i type="logical" name="LREAL"> F  </i>
  <i name="TIME">      0.40000000</i>
  <i type="int" name="ISMEAR">     0</i>
  <i name="SIGMA">      0.05000000</i>
  <i type="logical" name="LWAVE"> F  </i>
  <i type="logical" name="LCHARG"> F  </i>
  <i type="logical" name="LAECHG"> T  </i>
  <v type="int" name="KPOINT_BSE">    -1     0     0     0</v>
  <i type="logical" name="LHFCALC"> T  </i>
  <i name="HFSCREEN">      0.23000000</i>
  <i name="AEXX">      0.25000000</i>
 </incar>
 <structure name="primitive_cell" >
  <crystal>
   <varray name="basis" >
    <v>       0.00000000       2.81649843       2.81649843 </v>
    <v>       2.81649843       0.00000000       2.81649843 </v>
    <v>       2.81649843       2.81649843       0.00000000 </v>
   </varray>
   <i name="volume">     44.68466790 </i>
   <varray name="rec_basis" >
    <v>      -0.17752540       0.17752540       0.17752540 </v>
    <v>       0.17752540      -0.17752540       0.17752540 </v>
    <v>       0.17752540       0.17752540      -0.17752540 </v>
   </varray>
  </crystal>
  <varray name="positions" >
   <v>       0.00000000       0.00000000       0.00000000 </v>
   <v>       0.25000000       0.25000000       0.25000000 </v>
  </varray>
 </structure>
 <varray name="primitive_index" >
  <v type="int" >        1 </v>
  <v type="int" >        2 </v>
 </varray>
 <kpoints>
  <varray name="kpointlist" >
   <v>       0.00000000       0.00000000       0.00000000 </v>
   <v>       0.25000000       0.00000000       0.00000000 </v>
   <v>       0.50000000       0.00000000       0.00000000 </v>
   <v>       0.25000000       0.25000000       0.00000000 </v>
   <v>       0.50000000       0.25000000       0.00000000 </v>
   <v>      -0.25000000       0.25000000       0.00000000 </v>
   <v>       0.50000000       0.50000000       0.00000000 </v>
   <v>      -0.25000000       0.50000000       0.25000000 </v>
   <v>       0.50000000       0.50000000       0.50000000 </v>
   <v>       0.48979592       0.48979592       0.48979592 </v>
   <v>       0.47959184       0.47959184       0.47959184 </v>
   <v>       0.46938776       0.46938776       0.46938776 </v>
   <v>       0.45918367       0.45918367       0.45918367 </v>
   <v>       0.44897959       0.44897959       0.44897959 </v>
   <v>       0.43877551       0.43877551       0.43877551 </v>
   <v>       0.42857143       0.42857143       0.42857143 </v>
   <v>       0.41836735       0.41836735       0.41836735 </v>
   <v>       0.40816327       0.40816327       0.40816327 </v>
   <v>       0.39795918       0.39795918       0.39795918 </v>
   <v>       0.38775510       0.38775510       0.38775510 </v>
   <v>       0.37755102       0.37755102       0.37755102 </v>
   <v>       0.36734694       0.36734694       0.36734694 </v>
   <v>       0.35714286       0.35714286       0.35714286 </v>
   <v>       0.34693878       0.34693878       0.34693878 </v>
   <v>       0.33673469       0.33673469       0.33673469 </v>
   <v>       0.32653061       0.32653061       0.32653061 </v>
   <v>       0.31632653       0.31632653       0.31632653 </v>
   <v>       0.30612245       0.30612245       0.30612245 </v>
   <v>       0.29591837       0.29591837       0.29591837 </v>
   <v>       0.28571429       0.28571429       0.28571429 </v>
   <v>       0.27551020       0.27551020       0.27551020 </v>
   <v>       0.26530612       0.26530612       0.26530612 </v>
   <v>       0.25510204       0.25510204       0.25510204 </v>
   <v>       0.24489796       0.24489796       0.24489796 </v>
   <v>       0.23469388       0.23469388       0.23469388 </v>
   <v>       0.22448980       0.22448980       0.22448980 </v>
   <v>       0.21428571       0.21428571       0.21428571 </v>
   <v>       0.20408163       0.20408163       0.20408163 </v>
   <v>       0.19387755       0.19387755       0.19387755 </v>
   <v>       0.18367347       0.18367347       0.18367347 </v>
   <v>       0.17346939       0.17346939       0.17346939 </v>
   <v>       0.16326531       0.16326531       0.16326531 </v>
   <v>       0.15306122       0.15306122       0.15306122 </v>
   <v>       0.14285714       0.14285714       0.14285714 </v>
   <v>       0.13265306       0.13265306       0.13265306 </v>
   <v>       0.12244898       0.12244898       0.12244898 </v>
   <v>       0.11224490       0.11224490       0.11224490 </v>
   <v>       0.10204082       0.10204082       0.10204082 </v>
   <v>       0.09183673       0.09183673       0.09183673 </v>
   <v>       0.08163265       0.08163265       0.08163265 </v>
   <v>       0.07142857       0.07142857       0.07142857 </v>
   <v>       0.06122449       0.06122449       0.06122449 </v>
   <v>       0.05102041       0.05102041       0.05102041 </v>
   <v>       0.04081633       0.04081633       0.04081633 </v>
   <v>       0.03061224       0.03061224       0.03061224 </v>
   <v>       0.02040816       0.02040816       0.02040816 </v>
   <v>       0.01020408       0.01020408       0.01020408 </v>
   <v>       0.00000000       0.00000000       0.00000000 </v>
   <v>       0.00000000       0.00000000       0.00000000 </v>
   <v>       0.01020408       0.00000000       0.01020408 </v>
   <v>       0.02040816       0.00000000       0.02040816 </v>
   <v>       0.03061224       0.00000000       0.03061224 </v>
   <v>       0.04081633       0.00000000       0.04081633 </v>
   <v>       0.05102041       0.00000000       0.05102041 </v>
   <v>       0.06122449       0.00000000       0.06122449 </v>
   <v>       0.07142857       0.00000000       0.07142857 </v>
   <v>       0.08163265       0.00000000       0.08163265 </v>
   <v>       0.09183673       0.00000000       0.09183673 </v>
   <v>       0.10204082       0.00000000       0.10204082 </v>
   <v>       0.11224490       0.00000000       0.11224490 </v>
   <v>       0.12244898       0.00000000       0.12244898 </v>
   <v>       0.13265306       0.00000000       0.13265306 </v>
   <v>       0.14285714       0.00000000       0.14285714 </v>
   <v>       0.15306122       0.00000000       0.15306122 </v>
   <v>       0.16326531       0.00000000       0.16326531 </v>
   <v>       0.17346939       0.00000000       0.17346939 </v>
   <v>       0.18367347       0.00000000       0.18367347 </v>
   <v>       0.19387755       0.00000000       0.19387755 </v>
   <v>       0.20408163       0.00000000       0.20408163 </v>
   <v>       0.21428571       0.00000000       0.21428571 </v>
   <v>       0.22448980       0.00000000       0.22448980 </v>
   <v>       0.23469388       0.00000000       0.23469388 </v>
   <v>       0.24489796       0.00000000       0.24489796 </v>
   <v>       0.25510204       0.00000000       0.25510204 </v>
   <v>       0.26530612       0.00000000       0.26530612 </v>
   <v>       0.27551020       0.00000000       0.27551020 </v>
   <v>       0.28571429       0.00000000       0.28571429 </v>
   <v>       0.29591837       0.00000000       0.29591837 </v>
   <v>       0.30612245       0.00000000       0.30612245 </v>
   <v>       0.31632653       0.00000000       0.31632653 </v>
   <v>       0.32653061       0.00000000       0.32653061 </v>
   <v>       0.33673469       0.00000000       0.33673469 </v>
   <v>       0.34693878       0.00000000       0.34693878 </v>
   <v>       0.35714286       0.00000000       0.35714286 </v>
   <v>       0.36734694       0.00000000       0.36734694 </v>
   <v>       0.37755102       0.00000000       0.37755102 </v>
   <v>       0.38775510       0.00000000       0.38775510 </v>
   <v>       0.39795918       0.00000000       0.39795918 </v>
   <v>       0.40816327       0.00000000       0.40816327 </v>
   <v>       0.41836735       0.00000000       0.41836735 </v>
   <v>       0.42857143       0.00000000       0.42857143 </v>
   <v>       0.43877551       0.00000000       0.43877551 </v>
   <v>       0.44897959       0.00000000       0.44897959 </v>
   <v>       0.45918367       0.00000000       0.45918367 </v>
   <v>       0.46938776       0.00000000       0.46938776 </v>
   <v>       0.47959184       0.00000000       0.47959184 </v>
   <v>       0.48979592       0.00000000       0.48979592 </v>
   <v>       0.50000000       0.00000000       0.50000000 </v>
  </varray>
  <varray name="weights" >
   <v>       0.01562500 </v>
   <v>       0.12500000 </v>
   <v>       0.06250000 </v>
   <v>       0.09375000 </v>
   <v>       0.37500000 </v>
   <v>       0.18750000 </v>
   <v>       0.04687500 </v>
   <v>       0.09375000 </v>
   <v>       0.00000000 </v>
   <v>       0.00000000 </v>
   <v>       0.00000000 </v>
   <v>       0.00000000 </v>
   <v>       0.00000000 </v>
   <v>       0.00000000 </v>
   <v>       0.00000000 </v>
   <v>       0.00000000 </v>
   <v>       0.00000000 </v>
   <v>       0.00000000 </v>
   <v>       0.00000000 </v>
   <v>       0.00000000 </v>
   <v>       0.00000000 </v>
   <v>       0.00000000 </v>
   <v>       0.00000000 </v>
   <v>       0.00000000 </v>
   <v>       0.00000000 </v>
   <v>       0.00000000 </v>
   <v>       0.00000000 </v>
   <v>       0.00000000 </v>
   <v>       0.00000000 </v>
   <v>       0.00000000 </v>
   <v>       0.00000000 </v>
   <v>       0.00000000 </v>
   <v>       0.00000000 </v>
   <v>       0.00000000 </v>
   <v>       0.00000000 </v>
   <v>       0.00000000 </v>
   <v>       0.00000000 </v>
   <v>       0.00000000 </v>
   <v>       0.00000000 </v>
   <v>       0.00000000 </v>
   <v>       0.00000000 </v>
   <v>       0.00000000 </v>
   <v>       0.00000000 </v>
   <v>       0.00000000 </v>
   <v>       0.00000000 </v>
   <v>       0.00000000 </v>
   <v>       0.00000000 </v>
   <v>       0.00000000 </v>
   <v>       0.00000000 </v>
   <v>       0.00000000 </v>
   <v>       0.00000000 </v>
   <v>       0.00000000 </v>
   <v>       0.00000000 </v>
   <v>       0.00000000 </v>
   <v>       0.00000000 </v>
   <v>       0.00000000 </v>
   <v>       0.00000000 </v>
   <v>       0.00000000 </v>
   <v>       0.00000000 </v>
   <v>       0.00000000 </v>
   <v>       0.00000000 </v>
   <v>       0.00000000 </v>
   <v>       0.00000000 </v>
   <v>       0.00000000 </v>
   <v>       0.00000000 </v>
   <v>       0.00000000 </v>
   <v>       0.00000000 </v>
   <v>       0.00000000 </v>
   <v>       0.00000000 </v>
   <v>       0.00000000 </v>
   <v>       0.00000000 </v>
   <v>       0.00000000 </v>
   <v>       0.00000000 </v>
   <v>       0.00000000 </v>
   <v>       0.00000000 </v>
   <v>       0.00000000 </v>
   <v>       0.00000000 </v>
   <v>       0.00000000 </v>
   <v>       0.00000000 </v>
   <v>       0.00000000 </v>
   <v>       0.00000000 </v>
   <v>       0.00000000 </v>
   <v>       0.00000000 </v>
   <v>       0.00000000 </v>
   <v>       0.00000000 </v>
   <v>       0.00000000 </v>
   <v>       0.00000000 </v>
   <v>       0.00000000 </v>
   <v>       0.00000000 </v>
   <v>       0.00000000 </v>
   <v>       0.00000000 </v>
   <v>       0.00000000 </v>
   <v>       0.00000000 </v>
   <v>       0.00000000 </v>
   <v>       0.00000000 </v>
   <v>       0.00000000 </v>
   <v>       0.00000000 </v>
   <v>       0.00000000 </v>
   <v>       0.00000000 </v>
   <v>       0.00000000 </v>
   <v>       0.00000000 </v>
   <v>       0.00000000 </v>
   <v>       0.00000000 </v>
   <v>       0.00000000 </v>
   <v>       0.00000000 </v>
   <v>       0.00000000 </v>
   <v>       0.00000000 </v>
   <v>       0.00000000 </v>
  </varray>
 </kpoints>
 <parameters>
  <separator name="general" >
   <i type="string" name="SYSTEM">Ge1_ICSD_181070</i>
   <i type="logical" name="LCOMPAT"> F  </i>
  </separator>
  <separator name="electronic" >
   <i type="string" name="PREC">normal</i>
   <i name="ENMAX">    574.59500000</i>
   <i name="ENAUG">    385.84300000</i>
   <i name="EDIFF">      0.00000100</i>
   <i type="int" name="IALGO">    53</i>
   <i type="int" name="IWAVPR">    10</i>
   <i type="int" name="NBANDS">    56</i>
   <i name="NELECT">      8.00000000</i>
   <i type="int" name="TURBO">     0</i>
   <i type="int" name="IRESTART">     0</i>
   <i type="int" name="NREBOOT">     0</i>
   <i type="int" name="NMIN">     0</i>
   <i name="EREF">      0.00000000</i>
   <separator name="electronic smearing" >
    <i type="int" name="ISMEAR">     0</i>
    <i name="SIGMA">      0.05000000</i>
    <i name="KSPACING">      0.50000000</i>
    <i type="logical" name="KGAMMA"> T  </i>
   </separator>
   <separator name="electronic projectors" >
    <i type="logical" name="LREAL"> F  </i>
    <v name="ROPT">      0.00000000</v>
    <i type="int" name="LMAXPAW">  -100</i>
    <i type="int" name="LMAXMIX">     2</i>
    <i type="logical" name="NLSPLINE"> F  </i>
   </separator>
   <separator name="electronic startup" >
    <i type="int" name="ISTART">     1</i>
    <i type="int" name="ICHARG">     0</i>
    <i type="int" name="INIWAV">     1</i>
   </separator>
   <separator name="electronic spin" >
    <i type="int" name="ISPIN">     1</i>
    <i type="logical" name="LNONCOLLINEAR"> F  </i>
    <v name="MAGMOM">      1.00000000      1.00000000</v>
    <i name="NUPDOWN">     -1.00000000</i>
    <i type="logical" name="LSORBIT"> F  </i>
    <v name="SAXIS">      0.00000000      0.00000000      1.00000000</v>
    <i type="logical" name="LSPIRAL"> F  </i>
    <v name="QSPIRAL">      0.00000000      0.00000000      0.00000000</v>
    <i type="logical" name="LZEROZ"> F  </i>
   </separator>
   <separator name="electronic exchange-correlation" >
    <i type="logical" name="LASPH"> F  </i>
    <i type="logical" name="LMETAGGA"> F  </i>
   </separator>
   <separator name="electronic convergence" >
    <i type="int" name="NELM">    60</i>
    <i type="int" name="NELMDL">     0</i>
    <i type="int" name="NELMIN">     2</i>
    <i name="ENINI">    574.59500000</i>
    <separator name="electronic convergence detail" >
     <i type="logical" name="LDIAG"> T  </i>
     <i type="logical" name="LSUBROT"> F  </i>
     <i name="WEIMIN">      0.00000000</i>
     <i name="EBREAK">      0.00000000</i>
     <i name="DEPER">      0.30000000</i>
     <i type="int" name="NRMM">     4</i>
     <i name="TIME">      0.40000000</i>
    </separator>
   </separator>
   <separator name="electronic mixer" >
    <i name="AMIX">      0.20000000</i>
    <i name="BMIX">      0.00001000</i>
    <i name="AMIN">      0.10000000</i>
    <i name="AMIX_MAG">      0.80000000</i>
    <i name="BMIX_MAG">      0.00001000</i>
    <separator name="electronic mixer details" >
     <i type="int" name="IMIX">     4</i>
     <i type="logical" name="MIXFIRST"> F  </i>
     <i type="int" name="MAXMIX">   -45</i>
     <i name="WC">    100.00000000</i>
     <i type="int" name="INIMIX">     1</i>
     <i type="int" name="MIXPRE">     1</i>
     <i type="int" name="MREMOVE">     5</i>
    </separator>
   </separator>
   <separator name="electronic dipolcorrection" >
    <i type="logical" name="LDIPOL"> F  </i>
    <i type="logical" name="LMONO"> F  </i>
    <i type="int" name="IDIPOL">     0</i>
    <i name="EPSILON">      1.00000000</i>
    <v name="DIPOL">   -100.00000000   -100.00000000   -100.00000000</v>
    <i name="EFIELD">      0.00000000</i>
   </separator>
  </separator>
  <separator name="grids" >
   <i type="int" name="NGX">    24</i>
   <i type="int" name="NGY">    24</i>
   <i type="int" name="NGZ">    24</i>
   <i type="int" name="NGXF">    48</i>
   <i type="int" name="NGYF">    48</i>
   <i type="int" name="NGZF">    48</i>
   <i type="logical" name="ADDGRID"> F  </i>
  </separator>
  <separator name="ionic" >
   <i type="int" name="NSW">     0</i>
   <i type="int" name="IBRION">    -1</i>
   <i type="int" name="MDALGO">     0</i>
   <i type="int" name="ISIF">     0</i>
   <i name="PSTRESS">      0.00000000</i>
   <i name="EDIFFG">      0.00001000</i>
   <i type="int" name="NFREE">     0</i>
   <i name="POTIM">      0.50000000</i>
   <i name="SMASS">     -3.00000000</i>
   <i name="SCALEE">      1.00000000</i>
  </separator>
  <separator name="ionic md" >
   <i name="TEBEG">      0.00010000</i>
   <i name="TEEND">      0.00010000</i>
   <i type="int" name="NBLOCK">     1</i>
   <i type="int" name="KBLOCK">     1</i>
   <i type="int" name="NPACO">   256</i>
   <i name="APACO">     16.00000000</i>
  </separator>
  <separator name="symmetry" >
   <i type="int" name="ISYM">     2</i>
   <i name="SYMPREC">      0.00001000</i>
  </separator>
  <separator name="dos" >
   <i type="int" name="LORBIT">     0</i>
   <v name="RWIGS">     -1.00000000</v>
   <i type="int" name="NEDOS">   301</i>
   <i name="EMIN">     10.00000000</i>
   <i name="EMAX">    -10.00000000</i>
   <i name="EFERMI">      0.00000000</i>
  </separator>
  <separator name="writing" >
   <i type="int" name="NWRITE">     2</i>
   <i type="logical" name="LWAVE"> F  </i>
   <i type="logical" name="LDOWNSAMPLE"> F  </i>
   <i type="logical" name="LCHARG"> F  </i>
   <i type="logical" name="LPARD"> F  </i>
   <i type="logical" name="LVTOT"> F  </i>
   <i type="logical" name="LVHAR"> F  </i>
   <i type="logical" name="LELF"> F  </i>
   <i type="logical" name="LOPTICS"> F  </i>
   <v name="STM">      0.00000000      0.00000000      0.00000000      0.00000000      0.00000000      0.00000000      0.00000000</v>
  </separator>
  <separator name="performance" >
   <i type="int" name="NPAR">    56</i>
   <i type="int" name="NSIM">     4</i>
   <i type="int" name="NBLK">    -1</i>
   <i type="logical" name="LPLANE"> T  </i>
   <i type="logical" name="LSCALAPACK"> T  </i>
   <i type="logical" name="LSCAAWARE"> T  </i>
   <i type="logical" name="LSCALU"> F  </i>
   <i type="logical" name="LASYNC"> F  </i>
   <i type="logical" name="LORBITALREAL"> F  </i>
  </separator>
  <separator name="miscellaneous" >
   <i type="int" name="IDIOT">     3</i>
   <i type="int" name="ISPECIAL">     0</i>
   <i type="logical" name="LMUSIC"> F  </i>
   <v name="POMASS">     72.61000000</v>
   <v name="DARWINR">      0.00000000</v>
   <v name="DARWINV">      1.00000000</v>
   <i type="logical" name="LCORR"> T  </i>
  </separator>
  <i type="logical" name="GGA_COMPAT"> T  </i>
  <i type="logical" name="LBERRY"> F  </i>
  <i type="int" name="ICORELEVEL">     0</i>
  <i type="logical" name="LDAU"> F  </i>
  <i type="int" name="I_CONSTRAINED_M">     0</i>
  <separator name="electronic exchange-correlation" >
   <i type="string" name="GGA">--</i>
   <i type="int" name="VOSKOWN">     0</i>
   <i type="logical" name="LHFCALC"> T  </i>
   <i type="string" name="PRECFOCK">normal</i>
   <i type="logical" name="LSYMGRAD"> F  </i>
   <i type="logical" name="LHFONE"> F  </i>
   <i type="logical" name="LRHFCALC"> F  </i>
   <i type="logical" name="LTHOMAS"> F  </i>
   <i type="logical" name="LMODELHF"> F  </i>
   <i name="ENCUT4O">     -1.00000000</i>
   <i type="int" name="EXXOEP">     0</i>
   <i type="int" name="FOURORBIT">     0</i>
   <i name="AEXX">      0.25000000</i>
   <i name="HFALPHA">     -1.00000000</i>
   <i name="MCALPHA">      0.00000000</i>
   <i name="ALDAX">      0.75000000</i>
   <i name="AGGAX">      0.75000000</i>
   <i name="ALDAC">      1.00000000</i>
   <i name="AGGAC">      1.00000000</i>
   <i type="int" name="NKREDX">     1</i>
   <i type="int" name="NKREDY">     1</i>
   <i type="int" name="NKREDZ">     1</i>
   <i type="logical" name="SHIFTRED"> F  </i>
   <i type="logical" name="ODDONLY"> F  </i>
   <i type="logical" name="EVENONLY"> F  </i>
   <i type="int" name="LMAXFOCK">     4</i>
   <i type="int" name="NMAXFOCKAE">     1</i>
   <i type="logical" name="LFOCKAEDFT"> F  </i>
   <i name="HFSCREEN">      0.23000000</i>
   <i name="HFSCREENC">      0.23000000</i>
   <i type="int" name="NBANDSGWLOW">     1</i>
  </separator>
  <separator name="vdW DFT" >
   <i type="logical" name="LUSE_VDW"> F  </i>
   <i name="Zab_VDW">     -0.84910000</i>
   <i name="PARAM1">      0.12340000</i>
   <i name="PARAM2">      1.00000000</i>
   <i name="PARAM3">      0.00000000</i>
  </separator>
  <separator name="model GW" >
   <i type="int" name="MODEL_GW">     0</i>
   <i name="MODEL_EPS0">     13.40540037</i>
   <i name="MODEL_ALPHA">      1.00000000</i>
  </separator>
  <separator name="linear response parameters" >
   <i type="logical" name="LEPSILON"> F  </i>
   <i type="logical" name="LRPA"> F  </i>
   <i type="logical" name="LNABLA"> F  </i>
   <i type="logical" name="LVEL"> F  </i>
   <i type="int" name="KINTER">     0</i>
   <i name="CSHIFT">      0.10000000</i>
   <i name="OMEGAMAX">     -1.00000000</i>
   <i name="DEG_THRESHOLD">      0.00200000</i>
   <i name="RTIME">     -0.10000000</i>
   <i name="WPLASMAI">      0.00000000</i>
   <v name="DFIELD">      0.00000000      0.00000000      0.00000000</v>
   <v name="WPLASMA">      0.00000000      0.00000000      0.00000000      0.00000000      0.00000000      0.00000000      0.00000000      0.00000000      0.00000000</v>
  </separator>
  <separator name="orbital magnetization" >
   <i type="logical" name="NUCIND"> F  </i>
   <v name="MAGPOS">      0.00000000      0.00000000      0.00000000</v>
   <i type="logical" name="LNICSALL"> T  </i>
   <i type="logical" name="ORBITALMAG"> F  </i>
   <i type="logical" name="LMAGBLOCH"> F  </i>
   <i type="logical" name="LCHIMAG"> F  </i>
   <i type="logical" name="LGAUGE"> T  </i>
   <i type="int" name="MAGATOM">     0</i>
   <v name="MAGDIPOL">      0.00000000      0.00000000      0.00000000</v>
   <v name="AVECCONST">      0.00000000      0.00000000      0.00000000</v>
  </separator>
  <separator name="response functions" >
   <i type="logical" name="LADDER"> F  </i>
   <i type="logical" name="LRPAFORCE"> F  </i>
   <i type="logical" name="LFXC"> F  </i>
   <i type="logical" name="LHARTREE"> T  </i>
   <i type="int" name="IBSE">     0</i>
   <v type="int" name="KPOINT">    -1     0     0     0</v>
   <i type="logical" name="LTCTE"> F  </i>
   <i type="logical" name="LTETE"> F  </i>
   <i type="logical" name="LTRIPLET"> F  </i>
   <i type="logical" name="LFXCEPS"> F  </i>
   <i type="logical" name="LFXHEG"> F  </i>
   <i type="int" name="NATURALO">     2</i>
   <i type="logical" name="L2ORDER"> F  </i>
   <i type="logical" name="LMP2LT"> F  </i>
   <i type="logical" name="LUSEW"> F  </i>
   <i name="ENCUTGW">     -2.00000000</i>
   <i name="ENCUTGWSOFT">     -2.00000000</i>
   <i name="ENCUTLF">     -1.00000000</i>
   <i type="int" name="LMAXMP2">    -1</i>
   <i name="SCISSOR">      0.00000000</i>
   <i type="int" name="NOMEGA">     0</i>
   <i type="int" name="NOMEGAR">     0</i>
   <i type="int" name="NBANDSGW">    -1</i>
   <i type="int" name="NBANDSO">    -1</i>
   <i type="int" name="NBANDSV">    -1</i>
   <i type="int" name="NELM">     1</i>
   <i type="int" name="NELMHF">     1</i>
   <i type="int" name="DIM">     3</i>
   <i type="int" name="ANTIRES">     0</i>
   <i name="OMEGAMAX">    -30.00000000</i>
   <i name="OMEGAMIN">    -30.00000000</i>
   <i name="OMEGATL">   -200.00000000</i>
   <i type="int" name="OMEGAGRID">   140</i>
   <i name="CSHIFT">     -0.10000000</i>
   <i type="logical" name="SELFENERGY"> F  </i>
   <i type="logical" name="LSPECTRAL"> F  </i>
   <i type="logical" name="LSPECTRALGW"> F  </i>
   <i type="logical" name="LSINGLES"> F  </i>
   <i type="logical" name="LFERMIGW"> F  </i>
   <i type="logical" name="ODDONLYGW"> F  </i>
   <i type="logical" name="EVENONLYGW"> F  </i>
   <i type="int" name="NKREDLFX">     1</i>
   <i type="int" name="NKREDLFY">     1</i>
   <i type="int" name="NKREDLFZ">     1</i>
   <i type="int" name="MAXMEM">  2800</i>
   <i type="int" name="TELESCOPE">     0</i>
   <i type="int" name="TAUPAR">     1</i>
   <i type="int" name="OMEGAPAR">    -1</i>
   <i name="LAMBDA">      1.00000000</i>
  </separator>
  <separator name="External order field" >
   <i name="OFIELD_KAPPA">      0.00000000</i>
   <v name="OFIELD_K">      0.00000000      0.00000000      0.00000000</v>
   <i name="OFIELD_Q6_NEAR">      0.00000000</i>
   <i name="OFIELD_Q6_FAR">      0.00000000</i>
   <i name="OFIELD_A">      0.00000000</i>
  </separator>
 </parameters>
 <atominfo>
  <atoms>       2 </atoms>
  <types>       1 </types>
  <array name="atoms" >
   <dimension dim="1">ion</dimension>
   <field type="string">element</field>
   <field type="int">atomtype</field>
   <set>
    <rc><c>Ge</c><c>   1</c></rc>
    <rc><c>Ge</c><c>   1</c></rc>
   </set>
  </array>
  <array name="atomtypes" >
   <dimension dim="1">type</dimension>
   <field type="int">atomspertype</field>
   <field type="string">element</field>
   <field>mass</field>
   <field>valence</field>
   <field type="string">pseudopotential</field>
   <set>
    <rc><c>   2</c><c>Ge</c><c>     72.61000000</c><c>      4.00000000</c><c>  PAW_PBE Ge 05Jan2001                  </c></rc>
   </set>
  </array>
 </atominfo>
 <structure name="initialpos" >
  <crystal>
   <varray name="basis" >
    <v>       0.00000000       2.81649843       2.81649843 </v>
    <v>       2.81649843       0.00000000       2.81649843 </v>
    <v>       2.81649843       2.81649843       0.00000000 </v>
   </varray>
   <i name="volume">     44.68466790 </i>
   <varray name="rec_basis" >
    <v>      -0.17752540       0.17752540       0.17752540 </v>
    <v>       0.17752540      -0.17752540       0.17752540 </v>
    <v>       0.17752540       0.17752540      -0.17752540 </v>
   </varray>
  </crystal>
  <varray name="positions" >
   <v>       0.00000000       0.00000000       0.00000000 </v>
   <v>       0.25000000       0.25000000       0.25000000 </v>
  </varray>
 </structure>
 <calculation>
  <scstep>
   <time name="total">  442.42  442.64</time>
   <energy>
    <i name="alphaZ">     17.10943149 </i>
    <i name="ewald">   -220.32675904 </i>
    <i name="hartreedc">    -15.78365205 </i>
    <i name="XCdc">    -12.31206911 </i>
    <i name="pawpsdc">    477.65032099 </i>
    <i name="pawaedc">   -454.02962840 </i>
    <i name="eentropy">     -0.00000018 </i>
    <i name="bandstr">    -20.39186123 </i>
    <i name="atom">    207.49339809 </i>
    <i name="e_fr_energy">    -10.26809841 </i>
    <i name="e_wo_entrp">    -10.26809823 </i>
    <i name="e_0_energy">    -10.26809832 </i>
   </energy>
  </scstep>
  <scstep>
   <time name="total">  445.81  446.06</time>
   <energy>
    <i name="e_fr_energy">    -10.30092944 </i>
    <i name="e_wo_entrp">    -10.30092944 </i>
    <i name="e_0_energy">    -10.30092944 </i>
   </energy>
  </scstep>
  <scstep>
   <time name="total">  436.88  437.14</time>
   <energy>
    <i name="e_fr_energy">    -10.32249060 </i>
    <i name="e_wo_entrp">    -10.32249060 </i>
    <i name="e_0_energy">    -10.32249060 </i>
   </energy>
  </scstep>
  <scstep>
   <time name="total">  440.73  440.93</time>
   <energy>
    <i name="e_fr_energy">    -10.33206728 </i>
    <i name="e_wo_entrp">    -10.33206728 </i>
    <i name="e_0_energy">    -10.33206728 </i>
   </energy>
  </scstep>
  <scstep>
   <time name="total">  440.40  440.61</time>
   <energy>
    <i name="e_fr_energy">    -10.33646463 </i>
    <i name="e_wo_entrp">    -10.33646463 </i>
    <i name="e_0_energy">    -10.33646463 </i>
   </energy>
  </scstep>
  <scstep>
   <time name="total">  446.18  446.44</time>
   <energy>
    <i name="e_fr_energy">    -10.33885910 </i>
    <i name="e_wo_entrp">    -10.33885910 </i>
    <i name="e_0_energy">    -10.33885910 </i>
   </energy>
  </scstep>
  <scstep>
   <time name="total">  446.22  446.46</time>
   <energy>
    <i name="e_fr_energy">    -10.34016468 </i>
    <i name="e_wo_entrp">    -10.34016468 </i>
    <i name="e_0_energy">    -10.34016468 </i>
   </energy>
  </scstep>
  <scstep>
   <time name="total">  444.04  444.23</time>
   <energy>
    <i name="e_fr_energy">    -10.34079145 </i>
    <i name="e_wo_entrp">    -10.34079145 </i>
    <i name="e_0_energy">    -10.34079145 </i>
   </energy>
  </scstep>
  <scstep>
   <time name="total">  438.83  439.05</time>
   <energy>
    <i name="e_fr_energy">    -10.34107057 </i>
    <i name="e_wo_entrp">    -10.34107057 </i>
    <i name="e_0_energy">    -10.34107057 </i>
   </energy>
  </scstep>
  <scstep>
   <time name="total">  440.53  440.79</time>
   <energy>
    <i name="e_fr_energy">    -10.34120036 </i>
    <i name="e_wo_entrp">    -10.34120036 </i>
    <i name="e_0_energy">    -10.34120036 </i>
   </energy>
  </scstep>
  <scstep>
   <time name="total">  441.79  442.02</time>
   <energy>
    <i name="e_fr_energy">    -10.34126299 </i>
    <i name="e_wo_entrp">    -10.34126299 </i>
    <i name="e_0_energy">    -10.34126299 </i>
   </energy>
  </scstep>
  <scstep>
   <time name="total">  435.77  435.96</time>
   <energy>
    <i name="e_fr_energy">    -10.34129207 </i>
    <i name="e_wo_entrp">    -10.34129207 </i>
    <i name="e_0_energy">    -10.34129207 </i>
   </energy>
  </scstep>
  <scstep>
   <time name="total">  442.23  442.43</time>
   <energy>
    <i name="e_fr_energy">    -10.34130483 </i>
    <i name="e_wo_entrp">    -10.34130483 </i>
    <i name="e_0_energy">    -10.34130483 </i>
   </energy>
  </scstep>
  <scstep>
   <time name="total">  443.20  443.41</time>
   <energy>
    <i name="e_fr_energy">    -10.34131026 </i>
    <i name="e_wo_entrp">    -10.34131026 </i>
    <i name="e_0_energy">    -10.34131026 </i>
   </energy>
  </scstep>
  <scstep>
   <time name="total">  450.18  450.45</time>
   <energy>
    <i name="e_fr_energy">    -10.34131258 </i>
    <i name="e_wo_entrp">    -10.34131258 </i>
    <i name="e_0_energy">    -10.34131258 </i>
   </energy>
  </scstep>
  <scstep>
   <time name="total">  886.26  886.71</time>
   <energy>
    <i name="alphaZ">     17.10943149 </i>
    <i name="ewald">   -220.32675904 </i>
    <i name="hartreedc">    -15.71542188 </i>
    <i name="XCdc">    -12.22691514 </i>
    <i name="pawpsdc">    621.20332398 </i>
    <i name="pawaedc">   -597.58319488 </i>
    <i name="eentropy">     -0.00000000 </i>
    <i name="bandstr">    -20.66369521 </i>
    <i name="atom">    207.49339809 </i>
    <i name="e_fr_energy">    -10.34131357 </i>
    <i name="e_wo_entrp">    -10.34131357 </i>
    <i name="e_0_energy">    -10.34131357 </i>
   </energy>
  </scstep>
  <structure>
   <crystal>
    <varray name="basis" >
     <v>       0.00000000       2.81649843       2.81649843 </v>
     <v>       2.81649843       0.00000000       2.81649843 </v>
     <v>       2.81649843       2.81649843       0.00000000 </v>
    </varray>
    <i name="volume">     44.68466790 </i>
    <varray name="rec_basis" >
     <v>      -0.17752540       0.17752540       0.17752540 </v>
     <v>       0.17752540      -0.17752540       0.17752540 </v>
     <v>       0.17752540       0.17752540      -0.17752540 </v>
    </varray>
   </crystal>
   <varray name="positions" >
    <v>       0.00000000       0.00000000       0.00000000 </v>
    <v>       0.25000000       0.25000000       0.25000000 </v>
   </varray>
  </structure>
  <varray name="forces" >
   <v>       0.00000000       0.00000000       0.00000000 </v>
   <v>      -0.00000000      -0.00000000      -0.00000000 </v>
  </varray>
  <energy>
   <i name="e_fr_energy">    -10.34131357 </i>
   <i name="e_wo_entrp">    -10.34131357 </i>
   <i name="e_0_energy">     -0.00000000 </i>
  </energy>
  <time name="totalsc"> 8338.14 8342.30</time>
  <eigenvalues>
   <array>
    <dimension dim="1">band</dimension>
    <dimension dim="2">kpoint</dimension>
    <dimension dim="3">spin</dimension>
    <field>eigene</field>
    <field>occ</field>
    <set>
     <set comment="spin 1">
      <set comment="kpoint 1">
       <r>  -10.5565    1.0000 </r>
       <r>    3.5429    1.0000 </r>
       <r>    3.5429    1.0000 </r>
       <r>    3.5429    1.0000 </r>
       <r>    4.5635    0.0000 </r>
       <r>    6.7317    0.0000 </r>
       <r>    6.7317    0.0000 </r>
       <r>    6.7317    0.0000 </r>
       <r>   10.8475    0.0000 </r>
       <r>   13.6246    0.0000 </r>
       <r>   13.6246    0.0000 </r>
       <r>   15.2159    0.0000 </r>
       <r>   15.2159    0.0000 </r>
       <r>   15.2159    0.0000 </r>
       <r>   18.2774    0.0000 </r>
       <r>   29.0129    0.0000 </r>
       <r>   29.0129    0.0000 </r>
       <r>   29.0129    0.0000 </r>
       <r>   30.2456    0.0000 </r>
       <r>   30.2456    0.0000 </r>
       <r>   30.2456    0.0000 </r>
       <r>   30.2901    0.0000 </r>
       <r>   30.2901    0.0000 </r>
       <r>   31.3341    0.0000 </r>
       <r>   31.3341    0.0000 </r>
       <r>   31.3341    0.0000 </r>
       <r>   39.5410    0.0000 </r>
       <r>   39.8905    0.0000 </r>
       <r>   39.8905    0.0000 </r>
       <r>   39.8905    0.0000 </r>
       <r>   42.7128    0.0000 </r>
       <r>   42.7128    0.0000 </r>
       <r>   43.3928    0.0000 </r>
       <r>   43.3928    0.0000 </r>
       <r>   44.8652    0.0000 </r>
       <r>   44.8652    0.0000 </r>
       <r>   44.8653    0.0000 </r>
       <r>   45.0428    0.0000 </r>
       <r>   45.3883    0.0000 </r>
       <r>   45.3883    0.0000 </r>
       <r>   45.3887    0.0000 </r>
       <r>   46.1458    0.0000 </r>
       <r>   46.1522    0.0000 </r>
       <r>   46.2543    0.0000 </r>
       <r>   46.5010    0.0000 </r>
       <r>   46.5819    0.0000 </r>
       <r>   46.6059    0.0000 </r>
       <r>   47.5348    0.0000 </r>
       <r>   47.5702    0.0000 </r>
       <r>   47.5981    0.0000 </r>
       <r>   50.9828    0.0000 </r>
       <r>   52.9512    0.0000 </r>
       <r>   52.9522    0.0000 </r>
       <r>   52.9597    0.0000 </r>
       <r>   53.6821    0.0000 </r>
       <r>   56.9212    0.0000 </r>
      </set>
      <set comment="kpoint 2">
       <r>   -9.7260    1.0000 </r>
       <r>   -1.4718    1.0000 </r>
       <r>    2.5963    1.0000 </r>
       <r>    2.5963    1.0000 </r>
       <r>    4.9434    0.0000 </r>
       <r>    7.8752    0.0000 </r>
       <r>    7.8752    0.0000 </r>
       <r>   10.1623    0.0000 </r>
       <r>   12.4328    0.0000 </r>
       <r>   12.5393    0.0000 </r>
       <r>   12.5393    0.0000 </r>
       <r>   15.4777    0.0000 </r>
       <r>   19.4206    0.0000 </r>
       <r>   19.4206    0.0000 </r>
       <r>   22.3780    0.0000 </r>
       <r>   22.5608    0.0000 </r>
       <r>   22.5608    0.0000 </r>
       <r>   23.3607    0.0000 </r>
       <r>   30.1212    0.0000 </r>
       <r>   30.1212    0.0000 </r>
       <r>   31.1135    0.0000 </r>
       <r>   31.1135    0.0000 </r>
       <r>   31.9844    0.0000 </r>
       <r>   32.7697    0.0000 </r>
       <r>   33.6825    0.0000 </r>
       <r>   34.8910    0.0000 </r>
       <r>   34.8910    0.0000 </r>
       <r>   37.7498    0.0000 </r>
       <r>   37.7499    0.0000 </r>
       <r>   38.1458    0.0000 </r>
       <r>   38.1458    0.0000 </r>
       <r>   40.0694    0.0000 </r>
       <r>   40.6002    0.0000 </r>
       <r>   40.6002    0.0000 </r>
       <r>   40.9543    0.0000 </r>
       <r>   41.2812    0.0000 </r>
       <r>   43.6576    0.0000 </r>
       <r>   43.6576    0.0000 </r>
       <r>   44.6795    0.0000 </r>
       <r>   45.6399    0.0000 </r>
       <r>   45.8875    0.0000 </r>
       <r>   45.8875    0.0000 </r>
       <r>   46.2842    0.0000 </r>
       <r>   49.7973    0.0000 </r>
       <r>   49.9044    0.0000 </r>
       <r>   51.0411    0.0000 </r>
       <r>   51.0604    0.0000 </r>
       <r>   52.0137    0.0000 </r>
       <r>   52.1371    0.0000 </r>
       <r>   52.4725    0.0000 </r>
       <r>   53.5418    0.0000 </r>
       <r>   54.9987    0.0000 </r>
       <r>   58.3993    0.0000 </r>
       <r>   58.6282    0.0000 </r>
       <r>   58.6508    0.0000 </r>
       <r>   58.8154    0.0000 </r>
      </set>
      <set comment="kpoint 3">
       <r>   -8.2070    1.0000 </r>
       <r>   -4.7629    1.0000 </r>
       <r>    2.0116    1.0000 </r>
       <r>    2.0116    1.0000 </r>
       <r>    4.4138    0.0000 </r>
       <r>    7.9521    0.0000 </r>
       <r>    7.9521    0.0000 </r>
       <r>   11.4791    0.0000 </r>
       <r>   15.1833    0.0000 </r>
       <r>   15.7793    0.0000 </r>
       <r>   15.7793    0.0000 </r>
       <r>   16.1337    0.0000 </r>
       <r>   16.6001    0.0000 </r>
       <r>   16.6001    0.0000 </r>
       <r>   23.5429    0.0000 </r>
       <r>   24.6527    0.0000 </r>
       <r>   26.2056    0.0000 </r>
       <r>   26.2056    0.0000 </r>
       <r>   26.2726    0.0000 </r>
       <r>   26.2726    0.0000 </r>
       <r>   29.4846    0.0000 </r>
       <r>   30.7482    0.0000 </r>
       <r>   31.1268    0.0000 </r>
       <r>   31.1268    0.0000 </r>
       <r>   32.1902    0.0000 </r>
       <r>   32.1902    0.0000 </r>
       <r>   32.9592    0.0000 </r>
       <r>   36.0621    0.0000 </r>
       <r>   36.0621    0.0000 </r>
       <r>   36.2074    0.0000 </r>
       <r>   36.2074    0.0000 </r>
       <r>   37.1295    0.0000 </r>
       <r>   38.2430    0.0000 </r>
       <r>   38.4233    0.0000 </r>
       <r>   43.3855    0.0000 </r>
       <r>   43.3855    0.0000 </r>
       <r>   43.9158    0.0000 </r>
       <r>   44.9477    0.0000 </r>
       <r>   44.9477    0.0000 </r>
       <r>   45.8841    0.0000 </r>
       <r>   49.3065    0.0000 </r>
       <r>   49.3065    0.0000 </r>
       <r>   50.5507    0.0000 </r>
       <r>   50.5526    0.0000 </r>
       <r>   51.4029    0.0000 </r>
       <r>   53.6589    0.0000 </r>
       <r>   53.9059    0.0000 </r>
       <r>   53.9419    0.0000 </r>
       <r>   55.4862    0.0000 </r>
       <r>   55.7894    0.0000 </r>
       <r>   56.0038    0.0000 </r>
       <r>   57.1998    0.0000 </r>
       <r>   57.5184    0.0000 </r>
       <r>   59.9053    0.0000 </r>
       <r>   59.9244    0.0000 </r>
       <r>   61.5731    0.0000 </r>
      </set>
      <set comment="kpoint 4">
       <r>   -9.4252    1.0000 </r>
       <r>   -1.4030    1.0000 </r>
       <r>    1.3310    1.0000 </r>
       <r>    1.3310    1.0000 </r>
       <r>    5.0881    0.0000 </r>
       <r>    7.0306    0.0000 </r>
       <r>   10.2612    0.0000 </r>
       <r>   10.2612    0.0000 </r>
       <r>   11.5577    0.0000 </r>
       <r>   14.7192    0.0000 </r>
       <r>   14.7683    0.0000 </r>
       <r>   17.3556    0.0000 </r>
       <r>   17.3556    0.0000 </r>
       <r>   17.9842    0.0000 </r>
       <r>   22.1678    0.0000 </r>
       <r>   22.1678    0.0000 </r>
       <r>   23.3850    0.0000 </r>
       <r>   24.4505    0.0000 </r>
       <r>   25.1389    0.0000 </r>
       <r>   30.0335    0.0000 </r>
       <r>   31.5707    0.0000 </r>
       <r>   31.6921    0.0000 </r>
       <r>   31.6921    0.0000 </r>
       <r>   32.7831    0.0000 </r>
       <r>   32.7831    0.0000 </r>
       <r>   33.7506    0.0000 </r>
       <r>   34.3362    0.0000 </r>
       <r>   37.7035    0.0000 </r>
       <r>   38.8061    0.0000 </r>
       <r>   38.9635    0.0000 </r>
       <r>   38.9635    0.0000 </r>
       <r>   39.9238    0.0000 </r>
       <r>   39.9238    0.0000 </r>
       <r>   40.7352    0.0000 </r>
       <r>   42.3531    0.0000 </r>
       <r>   42.3531    0.0000 </r>
       <r>   42.8607    0.0000 </r>
       <r>   43.0322    0.0000 </r>
       <r>   43.6728    0.0000 </r>
       <r>   45.6791    0.0000 </r>
       <r>   45.9789    0.0000 </r>
       <r>   45.9789    0.0000 </r>
       <r>   47.7677    0.0000 </r>
       <r>   50.1152    0.0000 </r>
       <r>   50.1436    0.0000 </r>
       <r>   50.4169    0.0000 </r>
       <r>   50.7151    0.0000 </r>
       <r>   51.9048    0.0000 </r>
       <r>   52.0742    0.0000 </r>
       <r>   52.0782    0.0000 </r>
       <r>   53.1895    0.0000 </r>
       <r>   53.6607    0.0000 </r>
       <r>   57.0055    0.0000 </r>
       <r>   58.1580    0.0000 </r>
       <r>   60.0564    0.0000 </r>
       <r>   61.3273    0.0000 </r>
      </set>
      <set comment="kpoint 5">
       <r>   -7.7453    1.0000 </r>
       <r>   -4.4797    1.0000 </r>
       <r>   -0.4839    1.0000 </r>
       <r>    0.9175    1.0000 </r>
       <r>    5.5329    0.0000 </r>
       <r>    8.6113    0.0000 </r>
       <r>    9.7711    0.0000 </r>
       <r>   10.6146    0.0000 </r>
       <r>   14.5945    0.0000 </r>
       <r>   15.7937    0.0000 </r>
       <r>   16.5024    0.0000 </r>
       <r>   16.9472    0.0000 </r>
       <r>   17.6847    0.0000 </r>
       <r>   21.2966    0.0000 </r>
       <r>   22.3366    0.0000 </r>
       <r>   23.5612    0.0000 </r>
       <r>   23.9956    0.0000 </r>
       <r>   24.0737    0.0000 </r>
       <r>   24.4836    0.0000 </r>
       <r>   26.4590    0.0000 </r>
       <r>   28.4939    0.0000 </r>
       <r>   29.0148    0.0000 </r>
       <r>   29.7301    0.0000 </r>
       <r>   31.2379    0.0000 </r>
       <r>   32.4667    0.0000 </r>
       <r>   32.9717    0.0000 </r>
       <r>   33.0166    0.0000 </r>
       <r>   34.1084    0.0000 </r>
       <r>   35.5137    0.0000 </r>
       <r>   37.4336    0.0000 </r>
       <r>   38.0133    0.0000 </r>
       <r>   39.4696    0.0000 </r>
       <r>   40.2406    0.0000 </r>
       <r>   40.3986    0.0000 </r>
       <r>   40.8426    0.0000 </r>
       <r>   43.6672    0.0000 </r>
       <r>   45.4915    0.0000 </r>
       <r>   46.0112    0.0000 </r>
       <r>   46.9307    0.0000 </r>
       <r>   47.0461    0.0000 </r>
       <r>   47.0838    0.0000 </r>
       <r>   48.3128    0.0000 </r>
       <r>   48.5465    0.0000 </r>
       <r>   50.0740    0.0000 </r>
       <r>   50.8834    0.0000 </r>
       <r>   51.5622    0.0000 </r>
       <r>   52.5419    0.0000 </r>
       <r>   53.1271    0.0000 </r>
       <r>   55.0890    0.0000 </r>
       <r>   56.0281    0.0000 </r>
       <r>   56.9916    0.0000 </r>
       <r>   57.4519    0.0000 </r>
       <r>   57.8072    0.0000 </r>
       <r>   59.9222    0.0000 </r>
       <r>   61.3027    0.0000 </r>
       <r>   62.8213    0.0000 </r>
      </set>
      <set comment="kpoint 6">
       <r>   -8.4405    1.0000 </r>
       <r>   -3.5026    1.0000 </r>
       <r>   -0.6461    1.0000 </r>
       <r>    1.9109    1.0000 </r>
       <r>    6.2118    0.0000 </r>
       <r>    9.1573    0.0000 </r>
       <r>    9.4554    0.0000 </r>
       <r>    9.7421    0.0000 </r>
       <r>   11.8330    0.0000 </r>
       <r>   14.0392    0.0000 </r>
       <r>   16.5576    0.0000 </r>
       <r>   17.0964    0.0000 </r>
       <r>   18.2990    0.0000 </r>
       <r>   20.9113    0.0000 </r>
       <r>   22.5422    0.0000 </r>
       <r>   23.1877    0.0000 </r>
       <r>   23.5449    0.0000 </r>
       <r>   25.3809    0.0000 </r>
       <r>   26.1084    0.0000 </r>
       <r>   27.7446    0.0000 </r>
       <r>   28.4895    0.0000 </r>
       <r>   29.5626    0.0000 </r>
       <r>   30.3589    0.0000 </r>
       <r>   30.4780    0.0000 </r>
       <r>   32.3709    0.0000 </r>
       <r>   32.4904    0.0000 </r>
       <r>   34.1582    0.0000 </r>
       <r>   34.3828    0.0000 </r>
       <r>   38.1594    0.0000 </r>
       <r>   38.6238    0.0000 </r>
       <r>   38.9984    0.0000 </r>
       <r>   39.2635    0.0000 </r>
       <r>   40.1169    0.0000 </r>
       <r>   40.4691    0.0000 </r>
       <r>   40.6392    0.0000 </r>
       <r>   40.6763    0.0000 </r>
       <r>   40.8219    0.0000 </r>
       <r>   45.1402    0.0000 </r>
       <r>   46.1776    0.0000 </r>
       <r>   47.5180    0.0000 </r>
       <r>   47.9611    0.0000 </r>
       <r>   48.2201    0.0000 </r>
       <r>   50.7495    0.0000 </r>
       <r>   51.1093    0.0000 </r>
       <r>   52.0481    0.0000 </r>
       <r>   52.5154    0.0000 </r>
       <r>   52.5454    0.0000 </r>
       <r>   53.1118    0.0000 </r>
       <r>   53.7028    0.0000 </r>
       <r>   54.6279    0.0000 </r>
       <r>   55.4343    0.0000 </r>
       <r>   57.4936    0.0000 </r>
       <r>   57.8347    0.0000 </r>
       <r>   59.0179    0.0000 </r>
       <r>   59.4396    0.0000 </r>
       <r>   60.2364    0.0000 </r>
      </set>
      <set comment="kpoint 7">
       <r>   -6.1764    1.0000 </r>
       <r>   -6.1764    1.0000 </r>
       <r>    0.1678    1.0000 </r>
       <r>    0.1678    1.0000 </r>
       <r>    4.7996    0.0000 </r>
       <r>    4.7996    0.0000 </r>
       <r>   14.3412    0.0000 </r>
       <r>   14.3412    0.0000 </r>
       <r>   16.4965    0.0000 </r>
       <r>   16.4965    0.0000 </r>
       <r>   17.0141    0.0000 </r>
       <r>   17.0141    0.0000 </r>
       <r>   17.9889    0.0000 </r>
       <r>   17.9889    0.0000 </r>
       <r>   23.5798    0.0000 </r>
       <r>   23.5798    0.0000 </r>
       <r>   23.6109    0.0000 </r>
       <r>   23.6109    0.0000 </r>
       <r>   23.7157    0.0000 </r>
       <r>   23.7157    0.0000 </r>
       <r>   24.4142    0.0000 </r>
       <r>   24.4142    0.0000 </r>
       <r>   31.6831    0.0000 </r>
       <r>   31.6831    0.0000 </r>
       <r>   33.4961    0.0000 </r>
       <r>   33.4961    0.0000 </r>
       <r>   36.8143    0.0000 </r>
       <r>   36.8143    0.0000 </r>
       <r>   37.2196    0.0000 </r>
       <r>   37.2196    0.0000 </r>
       <r>   39.6353    0.0000 </r>
       <r>   39.6353    0.0000 </r>
       <r>   39.6936    0.0000 </r>
       <r>   39.6936    0.0000 </r>
       <r>   41.2399    0.0000 </r>
       <r>   41.2399    0.0000 </r>
       <r>   43.3961    0.0000 </r>
       <r>   43.3961    0.0000 </r>
       <r>   43.7932    0.0000 </r>
       <r>   43.7932    0.0000 </r>
       <r>   47.9784    0.0000 </r>
       <r>   47.9784    0.0000 </r>
       <r>   51.1035    0.0000 </r>
       <r>   51.1131    0.0000 </r>
       <r>   51.7349    0.0000 </r>
       <r>   51.7851    0.0000 </r>
       <r>   56.1452    0.0000 </r>
       <r>   56.2098    0.0000 </r>
       <r>   57.6379    0.0000 </r>
       <r>   57.7802    0.0000 </r>
       <r>   58.3925    0.0000 </r>
       <r>   58.8863    0.0000 </r>
       <r>   59.2983    0.0000 </r>
       <r>   60.3780    0.0000 </r>
       <r>   60.5336    0.0000 </r>
       <r>   61.2484    0.0000 </r>
      </set>
      <set comment="kpoint 8">
       <r>   -6.0624    1.0000 </r>
       <r>   -6.0624    1.0000 </r>
       <r>   -0.7128    1.0000 </r>
       <r>   -0.7128    1.0000 </r>
       <r>    8.7688    0.0000 </r>
       <r>    8.7688    0.0000 </r>
       <r>    8.9167    0.0000 </r>
       <r>    8.9167    0.0000 </r>
       <r>   15.6572    0.0000 </r>
       <r>   15.6572    0.0000 </r>
       <r>   17.5496    0.0000 </r>
       <r>   17.5496    0.0000 </r>
       <r>   20.8610    0.0000 </r>
       <r>   20.8610    0.0000 </r>
       <r>   21.8095    0.0000 </r>
       <r>   21.8095    0.0000 </r>
       <r>   24.3187    0.0000 </r>
       <r>   24.3187    0.0000 </r>
       <r>   25.4664    0.0000 </r>
       <r>   25.4664    0.0000 </r>
       <r>   27.9042    0.0000 </r>
       <r>   27.9042    0.0000 </r>
       <r>   30.6387    0.0000 </r>
       <r>   30.6387    0.0000 </r>
       <r>   30.7161    0.0000 </r>
       <r>   30.7161    0.0000 </r>
       <r>   31.5273    0.0000 </r>
       <r>   31.5273    0.0000 </r>
       <r>   37.2279    0.0000 </r>
       <r>   37.2279    0.0000 </r>
       <r>   39.1478    0.0000 </r>
       <r>   39.1478    0.0000 </r>
       <r>   41.1603    0.0000 </r>
       <r>   41.1603    0.0000 </r>
       <r>   43.0256    0.0000 </r>
       <r>   43.0256    0.0000 </r>
       <r>   45.9618    0.0000 </r>
       <r>   45.9618    0.0000 </r>
       <r>   46.9094    0.0000 </r>
       <r>   46.9094    0.0000 </r>
       <r>   49.2137    0.0000 </r>
       <r>   49.2143    0.0000 </r>
       <r>   49.4240    0.0000 </r>
       <r>   49.4245    0.0000 </r>
       <r>   50.6324    0.0000 </r>
       <r>   50.6550    0.0000 </r>
       <r>   53.1302    0.0000 </r>
       <r>   53.2359    0.0000 </r>
       <r>   56.9264    0.0000 </r>
       <r>   56.9574    0.0000 </r>
       <r>   57.2076    0.0000 </r>
       <r>   57.2561    0.0000 </r>
       <r>   58.4598    0.0000 </r>
       <r>   59.8599    0.0000 </r>
       <r>   60.4952    0.0000 </r>
       <r>   62.2595    0.0000 </r>
      </set>
      <set comment="kpoint 9">
       <r>   -8.2070    1.0000 </r>
       <r>   -4.7629    1.0000 </r>
       <r>    2.0116    1.0000 </r>
       <r>    2.0116    1.0000 </r>
       <r>    4.4138    0.0000 </r>
       <r>    7.9521    0.0000 </r>
       <r>    7.9521    0.0000 </r>
       <r>   11.4791    0.0000 </r>
       <r>   15.1833    0.0000 </r>
       <r>   15.7793    0.0000 </r>
       <r>   15.7794    0.0000 </r>
       <r>   16.1336    0.0000 </r>
       <r>   16.6000    0.0000 </r>
       <r>   16.6001    0.0000 </r>
       <r>   23.5429    0.0000 </r>
       <r>   24.6527    0.0000 </r>
       <r>   26.2060    0.0000 </r>
       <r>   26.2143    0.0000 </r>
       <r>   26.2642    0.0000 </r>
       <r>   26.2723    0.0000 </r>
       <r>   29.4852    0.0000 </r>
       <r>   30.7479    0.0000 </r>
       <r>   31.1273    0.0000 </r>
       <r>   31.1299    0.0000 </r>
       <r>   32.1901    0.0000 </r>
       <r>   32.1902    0.0000 </r>
       <r>   32.9564    0.0000 </r>
       <r>   36.0708    0.0000 </r>
       <r>   36.0791    0.0000 </r>
       <r>   36.1960    0.0000 </r>
       <r>   36.1998    0.0000 </r>
       <r>   37.1293    0.0000 </r>
       <r>   38.2442    0.0000 </r>
       <r>   38.4166    0.0000 </r>
       <r>   43.3958    0.0000 </r>
       <r>   43.4168    0.0000 </r>
       <r>   43.8977    0.0000 </r>
       <r>   44.9594    0.0000 </r>
       <r>   44.9863    0.0000 </r>
       <r>   45.8358    0.0000 </r>
       <r>   49.4089    0.0000 </r>
       <r>   49.4193    0.0000 </r>
       <r>   50.5900    0.0000 </r>
       <r>   50.7651    0.0000 </r>
       <r>   51.3555    0.0000 </r>
       <r>   53.7729    0.0000 </r>
       <r>   54.0261    0.0000 </r>
       <r>   54.3909    0.0000 </r>
       <r>   55.7093    0.0000 </r>
       <r>   56.0495    0.0000 </r>
       <r>   56.8655    0.0000 </r>
       <r>   57.4686    0.0000 </r>
       <r>   59.9104    0.0000 </r>
       <r>   60.3903    0.0000 </r>
       <r>   63.4894    0.0000 </r>
       <r>   64.1040    0.0000 </r>
      </set>
      <set comment="kpoint 10">
       <r>   -8.2124    1.0000 </r>
       <r>   -4.7545    1.0000 </r>
       <r>    2.0126    1.0000 </r>
       <r>    2.0126    1.0000 </r>
       <r>    4.4147    0.0000 </r>
       <r>    7.9526    0.0000 </r>
       <r>    7.9526    0.0000 </r>
       <r>   11.4805    0.0000 </r>
       <r>   15.1334    0.0000 </r>
       <r>   15.7269    0.0000 </r>
       <r>   15.7270    0.0000 </r>
       <r>   16.1816    0.0000 </r>
       <r>   16.6560    0.0000 </r>
       <r>   16.6561    0.0000 </r>
       <r>   23.4592    0.0000 </r>
       <r>   24.7407    0.0000 </r>
       <r>   25.9354    0.0000 </r>
       <r>   25.9354    0.0000 </r>
       <r>   26.5443    0.0000 </r>
       <r>   26.5447    0.0000 </r>
       <r>   29.4075    0.0000 </r>
       <r>   30.8267    0.0000 </r>
       <r>   31.1262    0.0000 </r>
       <r>   31.1290    0.0000 </r>
       <r>   32.1879    0.0000 </r>
       <r>   32.1884    0.0000 </r>
       <r>   32.9533    0.0000 </r>
       <r>   36.0714    0.0000 </r>
       <r>   36.0750    0.0000 </r>
       <r>   36.2070    0.0000 </r>
       <r>   36.2104    0.0000 </r>
       <r>   37.1207    0.0000 </r>
       <r>   38.2510    0.0000 </r>
       <r>   38.4298    0.0000 </r>
       <r>   43.3999    0.0000 </r>
       <r>   43.4102    0.0000 </r>
       <r>   43.8977    0.0000 </r>
       <r>   44.9590    0.0000 </r>
       <r>   44.9878    0.0000 </r>
       <r>   45.8414    0.0000 </r>
       <r>   49.2548    0.0000 </r>
       <r>   49.2674    0.0000 </r>
       <r>   50.6689    0.0000 </r>
       <r>   50.8154    0.0000 </r>
       <r>   51.3247    0.0000 </r>
       <r>   53.8168    0.0000 </r>
       <r>   54.1120    0.0000 </r>
       <r>   54.1241    0.0000 </r>
       <r>   55.5828    0.0000 </r>
       <r>   56.8942    0.0000 </r>
       <r>   57.3332    0.0000 </r>
       <r>   57.4941    0.0000 </r>
       <r>   59.6437    0.0000 </r>
       <r>   61.6231    0.0000 </r>
       <r>   62.6143    0.0000 </r>
       <r>   63.4183    0.0000 </r>
      </set>
      <set comment="kpoint 11">
       <r>   -8.2285    1.0000 </r>
       <r>   -4.7293    1.0000 </r>
       <r>    2.0157    1.0000 </r>
       <r>    2.0157    1.0000 </r>
       <r>    4.4175    0.0000 </r>
       <r>    7.9540    0.0000 </r>
       <r>    7.9541    0.0000 </r>
       <r>   11.4849    0.0000 </r>
       <r>   15.0061    0.0000 </r>
       <r>   15.5986    0.0000 </r>
       <r>   15.5986    0.0000 </r>
       <r>   16.3032    0.0000 </r>
       <r>   16.7953    0.0000 </r>
       <r>   16.7953    0.0000 </r>
       <r>   23.2596    0.0000 </r>
       <r>   24.9532    0.0000 </r>
       <r>   25.6362    0.0000 </r>
       <r>   25.6362    0.0000 </r>
       <r>   26.8479    0.0000 </r>
       <r>   26.8482    0.0000 </r>
       <r>   29.2148    0.0000 </r>
       <r>   31.0224    0.0000 </r>
       <r>   31.1221    0.0000 </r>
       <r>   31.1251    0.0000 </r>
       <r>   32.1814    0.0000 </r>
       <r>   32.1816    0.0000 </r>
       <r>   32.9462    0.0000 </r>
       <r>   36.0689    0.0000 </r>
       <r>   36.0890    0.0000 </r>
       <r>   36.2216    0.0000 </r>
       <r>   36.2376    0.0000 </r>
       <r>   37.0960    0.0000 </r>
       <r>   38.2641    0.0000 </r>
       <r>   38.4723    0.0000 </r>
       <r>   43.4052    0.0000 </r>
       <r>   43.4119    0.0000 </r>
       <r>   43.9053    0.0000 </r>
       <r>   44.9575    0.0000 </r>
       <r>   44.9675    0.0000 </r>
       <r>   45.8571    0.0000 </r>
       <r>   49.0561    0.0000 </r>
       <r>   49.0605    0.0000 </r>
       <r>   50.8609    0.0000 </r>
       <r>   51.1084    0.0000 </r>
       <r>   51.2536    0.0000 </r>
       <r>   53.8778    0.0000 </r>
       <r>   53.9765    0.0000 </r>
       <r>   54.5420    0.0000 </r>
       <r>   55.6645    0.0000 </r>
       <r>   56.5280    0.0000 </r>
       <r>   56.9812    0.0000 </r>
       <r>   57.6481    0.0000 </r>
       <r>   60.3125    0.0000 </r>
       <r>   61.5759    0.0000 </r>
       <r>   62.3786    0.0000 </r>
       <r>   64.4571    0.0000 </r>
      </set>
      <set comment="kpoint 12">
       <r>   -8.2548    1.0000 </r>
       <r>   -4.6880    1.0000 </r>
       <r>    2.0207    1.0000 </r>
       <r>    2.0208    1.0000 </r>
       <r>    4.4222    0.0000 </r>
       <r>    7.9565    0.0000 </r>
       <r>    7.9565    0.0000 </r>
       <r>   11.4921    0.0000 </r>
       <r>   14.8364    0.0000 </r>
       <r>   15.4350    0.0000 </r>
       <r>   15.4350    0.0000 </r>
       <r>   16.4627    0.0000 </r>
       <r>   16.9771    0.0000 </r>
       <r>   16.9772    0.0000 </r>
       <r>   23.0116    0.0000 </r>
       <r>   25.2227    0.0000 </r>
       <r>   25.3384    0.0000 </r>
       <r>   25.3384    0.0000 </r>
       <r>   27.1529    0.0000 </r>
       <r>   27.1533    0.0000 </r>
       <r>   28.9660    0.0000 </r>
       <r>   31.1183    0.0000 </r>
       <r>   31.1208    0.0000 </r>
       <r>   31.2727    0.0000 </r>
       <r>   32.1706    0.0000 </r>
       <r>   32.1708    0.0000 </r>
       <r>   32.9329    0.0000 </r>
       <r>   36.0751    0.0000 </r>
       <r>   36.0823    0.0000 </r>
       <r>   36.2709    0.0000 </r>
       <r>   36.2772    0.0000 </r>
       <r>   37.0587    0.0000 </r>
       <r>   38.2906    0.0000 </r>
       <r>   38.5336    0.0000 </r>
       <r>   43.4008    0.0000 </r>
       <r>   43.4175    0.0000 </r>
       <r>   43.9090    0.0000 </r>
       <r>   44.9423    0.0000 </r>
       <r>   44.9453    0.0000 </r>
       <r>   45.8739    0.0000 </r>
       <r>   48.7588    0.0000 </r>
       <r>   48.7727    0.0000 </r>
       <r>   51.0543    0.0000 </r>
       <r>   51.1216    0.0000 </r>
       <r>   51.3238    0.0000 </r>
       <r>   53.9171    0.0000 </r>
       <r>   54.1431    0.0000 </r>
       <r>   55.1093    0.0000 </r>
       <r>   55.6390    0.0000 </r>
       <r>   56.3989    0.0000 </r>
       <r>   57.2284    0.0000 </r>
       <r>   58.3180    0.0000 </r>
       <r>   59.3391    0.0000 </r>
       <r>   60.6481    0.0000 </r>
       <r>   62.1998    0.0000 </r>
       <r>   63.8464    0.0000 </r>
      </set>
      <set comment="kpoint 13">
       <r>   -8.2906    1.0000 </r>
       <r>   -4.6311    1.0000 </r>
       <r>    2.0279    1.0000 </r>
       <r>    2.0279    1.0000 </r>
       <r>    4.4287    0.0000 </r>
       <r>    7.9598    0.0000 </r>
       <r>    7.9598    0.0000 </r>
       <r>   11.5021    0.0000 </r>
       <r>   14.6454    0.0000 </r>
       <r>   15.2572    0.0000 </r>
       <r>   15.2572    0.0000 </r>
       <r>   16.6379    0.0000 </r>
       <r>   17.1805    0.0000 </r>
       <r>   17.1805    0.0000 </r>
       <r>   22.7477    0.0000 </r>
       <r>   25.0426    0.0000 </r>
       <r>   25.0426    0.0000 </r>
       <r>   25.5166    0.0000 </r>
       <r>   27.4582    0.0000 </r>
       <r>   27.4586    0.0000 </r>
       <r>   28.6938    0.0000 </r>
       <r>   31.1117    0.0000 </r>
       <r>   31.1138    0.0000 </r>
       <r>   31.5514    0.0000 </r>
       <r>   32.1560    0.0000 </r>
       <r>   32.1564    0.0000 </r>
       <r>   32.9146    0.0000 </r>
       <r>   36.0857    0.0000 </r>
       <r>   36.0885    0.0000 </r>
       <r>   36.3237    0.0000 </r>
       <r>   36.3242    0.0000 </r>
       <r>   37.0151    0.0000 </r>
       <r>   38.3310    0.0000 </r>
       <r>   38.6152    0.0000 </r>
       <r>   43.4022    0.0000 </r>
       <r>   43.4282    0.0000 </r>
       <r>   43.9331    0.0000 </r>
       <r>   44.9219    0.0000 </r>
       <r>   44.9977    0.0000 </r>
       <r>   45.8458    0.0000 </r>
       <r>   48.4412    0.0000 </r>
       <r>   48.4496    0.0000 </r>
       <r>   50.8873    0.0000 </r>
       <r>   51.2354    0.0000 </r>
       <r>   51.2373    0.0000 </r>
       <r>   53.8801    0.0000 </r>
       <r>   53.9778    0.0000 </r>
       <r>   54.6428    0.0000 </r>
       <r>   55.7944    0.0000 </r>
       <r>   56.4570    0.0000 </r>
       <r>   56.8649    0.0000 </r>
       <r>   58.3597    0.0000 </r>
       <r>   58.6291    0.0000 </r>
       <r>   60.1226    0.0000 </r>
       <r>   62.4316    0.0000 </r>
       <r>   63.5631    0.0000 </r>
      </set>
      <set comment="kpoint 14">
       <r>   -8.3348    1.0000 </r>
       <r>   -4.5598    1.0000 </r>
       <r>    2.0371    1.0000 </r>
       <r>    2.0371    1.0000 </r>
       <r>    4.4371    0.0000 </r>
       <r>    7.9639    0.0000 </r>
       <r>    7.9639    0.0000 </r>
       <r>   11.5147    0.0000 </r>
       <r>   14.4436    0.0000 </r>
       <r>   15.0744    0.0000 </r>
       <r>   15.0744    0.0000 </r>
       <r>   16.8169    0.0000 </r>
       <r>   17.3963    0.0000 </r>
       <r>   17.3963    0.0000 </r>
       <r>   22.4826    0.0000 </r>
       <r>   24.7491    0.0000 </r>
       <r>   24.7491    0.0000 </r>
       <r>   25.8197    0.0000 </r>
       <r>   27.7631    0.0000 </r>
       <r>   27.7638    0.0000 </r>
       <r>   28.4146    0.0000 </r>
       <r>   31.1042    0.0000 </r>
       <r>   31.1067    0.0000 </r>
       <r>   31.8400    0.0000 </r>
       <r>   32.1376    0.0000 </r>
       <r>   32.1379    0.0000 </r>
       <r>   32.8915    0.0000 </r>
       <r>   36.1050    0.0000 </r>
       <r>   36.1096    0.0000 </r>
       <r>   36.3813    0.0000 </r>
       <r>   36.3820    0.0000 </r>
       <r>   36.9673    0.0000 </r>
       <r>   38.3802    0.0000 </r>
       <r>   38.7107    0.0000 </r>
       <r>   43.4175    0.0000 </r>
       <r>   43.4211    0.0000 </r>
       <r>   43.9297    0.0000 </r>
       <r>   44.9231    0.0000 </r>
       <r>   44.9314    0.0000 </r>
       <r>   45.8755    0.0000 </r>
       <r>   48.1253    0.0000 </r>
       <r>   48.1355    0.0000 </r>
       <r>   50.7222    0.0000 </r>
       <r>   51.3141    0.0000 </r>
       <r>   51.6678    0.0000 </r>
       <r>   53.9524    0.0000 </r>
       <r>   54.0735    0.0000 </r>
       <r>   55.4534    0.0000 </r>
       <r>   55.4624    0.0000 </r>
       <r>   55.8120    0.0000 </r>
       <r>   57.2833    0.0000 </r>
       <r>   57.4434    0.0000 </r>
       <r>   58.6235    0.0000 </r>
       <r>   58.8940    0.0000 </r>
       <r>   61.7731    0.0000 </r>
       <r>   63.5469    0.0000 </r>
      </set>
      <set comment="kpoint 15">
       <r>   -8.3866    1.0000 </r>
       <r>   -4.4749    1.0000 </r>
       <r>    2.0483    1.0000 </r>
       <r>    2.0483    1.0000 </r>
       <r>    4.4473    0.0000 </r>
       <r>    7.9687    0.0000 </r>
       <r>    7.9687    0.0000 </r>
       <r>   11.5299    0.0000 </r>
       <r>   14.2362    0.0000 </r>
       <r>   14.8910    0.0000 </r>
       <r>   14.8910    0.0000 </r>
       <r>   16.9924    0.0000 </r>
       <r>   17.6202    0.0000 </r>
       <r>   17.6202    0.0000 </r>
       <r>   22.2242    0.0000 </r>
       <r>   24.4580    0.0000 </r>
       <r>   24.4580    0.0000 </r>
       <r>   26.1205    0.0000 </r>
       <r>   28.0666    0.0000 </r>
       <r>   28.0679    0.0000 </r>
       <r>   28.1395    0.0000 </r>
       <r>   31.0965    0.0000 </r>
       <r>   31.0985    0.0000 </r>
       <r>   32.1169    0.0000 </r>
       <r>   32.1190    0.0000 </r>
       <r>   32.1284    0.0000 </r>
       <r>   32.8642    0.0000 </r>
       <r>   36.1313    0.0000 </r>
       <r>   36.1350    0.0000 </r>
       <r>   36.4478    0.0000 </r>
       <r>   36.4503    0.0000 </r>
       <r>   36.9212    0.0000 </r>
       <r>   38.4382    0.0000 </r>
       <r>   38.8186    0.0000 </r>
       <r>   43.4168    0.0000 </r>
       <r>   43.4199    0.0000 </r>
       <r>   43.9325    0.0000 </r>
       <r>   44.8829    0.0000 </r>
       <r>   44.9233    0.0000 </r>
       <r>   45.8830    0.0000 </r>
       <r>   47.7991    0.0000 </r>
       <r>   47.8058    0.0000 </r>
       <r>   50.4416    0.0000 </r>
       <r>   51.4334    0.0000 </r>
       <r>   51.4927    0.0000 </r>
       <r>   53.9857    0.0000 </r>
       <r>   54.1768    0.0000 </r>
       <r>   55.3166    0.0000 </r>
       <r>   55.4571    0.0000 </r>
       <r>   56.1507    0.0000 </r>
       <r>   57.4757    0.0000 </r>
       <r>   57.9108    0.0000 </r>
       <r>   58.5131    0.0000 </r>
       <r>   60.7585    0.0000 </r>
       <r>   61.7261    0.0000 </r>
       <r>   63.5204    0.0000 </r>
      </set>
      <set comment="kpoint 16">
       <r>   -8.4448    1.0000 </r>
       <r>   -4.3776    1.0000 </r>
       <r>    2.0615    1.0000 </r>
       <r>    2.0616    1.0000 </r>
       <r>    4.4594    0.0000 </r>
       <r>    7.9740    0.0000 </r>
       <r>    7.9740    0.0000 </r>
       <r>   11.5474    0.0000 </r>
       <r>   14.0261    0.0000 </r>
       <r>   14.7092    0.0000 </r>
       <r>   14.7092    0.0000 </r>
       <r>   17.1585    0.0000 </r>
       <r>   17.8501    0.0000 </r>
       <r>   17.8501    0.0000 </r>
       <r>   21.9789    0.0000 </r>
       <r>   24.1696    0.0000 </r>
       <r>   24.1696    0.0000 </r>
       <r>   26.4025    0.0000 </r>
       <r>   27.8886    0.0000 </r>
       <r>   28.3671    0.0000 </r>
       <r>   28.3673    0.0000 </r>
       <r>   31.0899    0.0000 </r>
       <r>   31.0937    0.0000 </r>
       <r>   32.0938    0.0000 </r>
       <r>   32.0947    0.0000 </r>
       <r>   32.4169    0.0000 </r>
       <r>   32.8310    0.0000 </r>
       <r>   36.1661    0.0000 </r>
       <r>   36.1686    0.0000 </r>
       <r>   36.5212    0.0000 </r>
       <r>   36.5322    0.0000 </r>
       <r>   36.8812    0.0000 </r>
       <r>   38.5071    0.0000 </r>
       <r>   38.9352    0.0000 </r>
       <r>   43.4080    0.0000 </r>
       <r>   43.4659    0.0000 </r>
       <r>   43.9471    0.0000 </r>
       <r>   44.8501    0.0000 </r>
       <r>   44.8610    0.0000 </r>
       <r>   45.9046    0.0000 </r>
       <r>   47.4703    0.0000 </r>
       <r>   47.4798    0.0000 </r>
       <r>   50.1471    0.0000 </r>
       <r>   51.4908    0.0000 </r>
       <r>   51.6052    0.0000 </r>
       <r>   53.8600    0.0000 </r>
       <r>   53.8830    0.0000 </r>
       <r>   55.4744    0.0000 </r>
       <r>   55.5810    0.0000 </r>
       <r>   56.3542    0.0000 </r>
       <r>   57.2469    0.0000 </r>
       <r>   58.2963    0.0000 </r>
       <r>   58.4229    0.0000 </r>
       <r>   60.3766    0.0000 </r>
       <r>   62.0768    0.0000 </r>
       <r>   63.5080    0.0000 </r>
      </set>
      <set comment="kpoint 17">
       <r>   -8.5083    1.0000 </r>
       <r>   -4.2690    1.0000 </r>
       <r>    2.0768    1.0000 </r>
       <r>    2.0768    1.0000 </r>
       <r>    4.4733    0.0000 </r>
       <r>    7.9797    0.0000 </r>
       <r>    7.9797    0.0000 </r>
       <r>   11.5669    0.0000 </r>
       <r>   13.8151    0.0000 </r>
       <r>   14.5303    0.0000 </r>
       <r>   14.5303    0.0000 </r>
       <r>   17.3094    0.0000 </r>
       <r>   18.0846    0.0000 </r>
       <r>   18.0847    0.0000 </r>
       <r>   21.7524    0.0000 </r>
       <r>   23.8839    0.0000 </r>
       <r>   23.8839    0.0000 </r>
       <r>   26.6247    0.0000 </r>
       <r>   27.7003    0.0000 </r>
       <r>   28.6626    0.0000 </r>
       <r>   28.6633    0.0000 </r>
       <r>   31.0859    0.0000 </r>
       <r>   31.0882    0.0000 </r>
       <r>   32.0693    0.0000 </r>
       <r>   32.0703    0.0000 </r>
       <r>   32.6966    0.0000 </r>
       <r>   32.7954    0.0000 </r>
       <r>   36.2086    0.0000 </r>
       <r>   36.2120    0.0000 </r>
       <r>   36.6019    0.0000 </r>
       <r>   36.6029    0.0000 </r>
       <r>   36.8528    0.0000 </r>
       <r>   38.5886    0.0000 </r>
       <r>   39.0580    0.0000 </r>
       <r>   43.4165    0.0000 </r>
       <r>   43.4204    0.0000 </r>
       <r>   43.9775    0.0000 </r>
       <r>   44.7993    0.0000 </r>
       <r>   44.8236    0.0000 </r>
       <r>   45.9250    0.0000 </r>
       <r>   47.1623    0.0000 </r>
       <r>   47.1695    0.0000 </r>
       <r>   49.8233    0.0000 </r>
       <r>   51.5005    0.0000 </r>
       <r>   51.5391    0.0000 </r>
       <r>   53.8401    0.0000 </r>
       <r>   53.8427    0.0000 </r>
       <r>   55.4082    0.0000 </r>
       <r>   55.6771    0.0000 </r>
       <r>   56.3948    0.0000 </r>
       <r>   56.9941    0.0000 </r>
       <r>   57.8623    0.0000 </r>
       <r>   58.2794    0.0000 </r>
       <r>   60.6639    0.0000 </r>
       <r>   63.3251    0.0000 </r>
       <r>   64.1494    0.0000 </r>
      </set>
      <set comment="kpoint 18">
       <r>   -8.5762    1.0000 </r>
       <r>   -4.1500    1.0000 </r>
       <r>    2.0940    1.0000 </r>
       <r>    2.0940    1.0000 </r>
       <r>    4.4890    0.0000 </r>
       <r>    7.9856    0.0000 </r>
       <r>    7.9856    0.0000 </r>
       <r>   11.5878    0.0000 </r>
       <r>   13.6047    0.0000 </r>
       <r>   14.3553    0.0000 </r>
       <r>   14.3553    0.0000 </r>
       <r>   17.4389    0.0000 </r>
       <r>   18.3230    0.0000 </r>
       <r>   18.3231    0.0000 </r>
       <r>   21.5512    0.0000 </r>
       <r>   23.6013    0.0000 </r>
       <r>   23.6013    0.0000 </r>
       <r>   26.6948    0.0000 </r>
       <r>   27.6679    0.0000 </r>
       <r>   28.9500    0.0000 </r>
       <r>   28.9503    0.0000 </r>
       <r>   31.0865    0.0000 </r>
       <r>   31.0902    0.0000 </r>
       <r>   32.0451    0.0000 </r>
       <r>   32.0461    0.0000 </r>
       <r>   32.7569    0.0000 </r>
       <r>   32.9596    0.0000 </r>
       <r>   36.2581    0.0000 </r>
       <r>   36.2621    0.0000 </r>
       <r>   36.6881    0.0000 </r>
       <r>   36.6888    0.0000 </r>
       <r>   36.8396    0.0000 </r>
       <r>   38.6767    0.0000 </r>
       <r>   39.1883    0.0000 </r>
       <r>   43.4131    0.0000 </r>
       <r>   43.4478    0.0000 </r>
       <r>   43.9850    0.0000 </r>
       <r>   44.7282    0.0000 </r>
       <r>   44.7492    0.0000 </r>
       <r>   45.9448    0.0000 </r>
       <r>   46.8739    0.0000 </r>
       <r>   46.8816    0.0000 </r>
       <r>   49.5476    0.0000 </r>
       <r>   51.4818    0.0000 </r>
       <r>   51.5719    0.0000 </r>
       <r>   53.6272    0.0000 </r>
       <r>   53.7693    0.0000 </r>
       <r>   54.9473    0.0000 </r>
       <r>   55.9457    0.0000 </r>
       <r>   56.7170    0.0000 </r>
       <r>   57.2831    0.0000 </r>
       <r>   57.9369    0.0000 </r>
       <r>   58.8669    0.0000 </r>
       <r>   59.7443    0.0000 </r>
       <r>   61.2570    0.0000 </r>
       <r>   61.7140    0.0000 </r>
      </set>
      <set comment="kpoint 19">
       <r>   -8.6476    1.0000 </r>
       <r>   -4.0217    1.0000 </r>
       <r>    2.1132    1.0000 </r>
       <r>    2.1132    1.0000 </r>
       <r>    4.5065    0.0000 </r>
       <r>    7.9915    0.0000 </r>
       <r>    7.9915    0.0000 </r>
       <r>   11.6096    0.0000 </r>
       <r>   13.3960    0.0000 </r>
       <r>   14.1849    0.0000 </r>
       <r>   14.1849    0.0000 </r>
       <r>   17.5399    0.0000 </r>
       <r>   18.5646    0.0000 </r>
       <r>   18.5646    0.0000 </r>
       <r>   21.3825    0.0000 </r>
       <r>   23.3219    0.0000 </r>
       <r>   23.3219    0.0000 </r>
       <r>   26.5720    0.0000 </r>
       <r>   27.8325    0.0000 </r>
       <r>   29.2250    0.0000 </r>
       <r>   29.2255    0.0000 </r>
       <r>   31.0951    0.0000 </r>
       <r>   31.0976    0.0000 </r>
       <r>   32.0232    0.0000 </r>
       <r>   32.0241    0.0000 </r>
       <r>   32.7160    0.0000 </r>
       <r>   33.2058    0.0000 </r>
       <r>   36.3158    0.0000 </r>
       <r>   36.3194    0.0000 </r>
       <r>   36.7804    0.0000 </r>
       <r>   36.7945    0.0000 </r>
       <r>   36.8338    0.0000 </r>
       <r>   38.7747    0.0000 </r>
       <r>   39.3217    0.0000 </r>
       <r>   43.4237    0.0000 </r>
       <r>   43.4259    0.0000 </r>
       <r>   44.0182    0.0000 </r>
       <r>   44.6210    0.0000 </r>
       <r>   44.6253    0.0000 </r>
       <r>   46.0014    0.0000 </r>
       <r>   46.5938    0.0000 </r>
       <r>   46.6242    0.0000 </r>
       <r>   49.2753    0.0000 </r>
       <r>   51.4504    0.0000 </r>
       <r>   51.6555    0.0000 </r>
       <r>   53.6793    0.0000 </r>
       <r>   53.7561    0.0000 </r>
       <r>   54.9593    0.0000 </r>
       <r>   56.4815    0.0000 </r>
       <r>   56.7609    0.0000 </r>
       <r>   56.9427    0.0000 </r>
       <r>   57.6276    0.0000 </r>
       <r>   58.4646    0.0000 </r>
       <r>   60.4605    0.0000 </r>
       <r>   60.8202    0.0000 </r>
       <r>   60.9880    0.0000 </r>
      </set>
      <set comment="kpoint 20">
       <r>   -8.7216    1.0000 </r>
       <r>   -3.8848    1.0000 </r>
       <r>    2.1344    1.0000 </r>
       <r>    2.1344    1.0000 </r>
       <r>    4.5259    0.0000 </r>
       <r>    7.9971    0.0000 </r>
       <r>    7.9971    0.0000 </r>
       <r>   11.6312    0.0000 </r>
       <r>   13.1906    0.0000 </r>
       <r>   14.0196    0.0000 </r>
       <r>   14.0196    0.0000 </r>
       <r>   17.6052    0.0000 </r>
       <r>   18.8088    0.0000 </r>
       <r>   18.8088    0.0000 </r>
       <r>   21.2535    0.0000 </r>
       <r>   23.0461    0.0000 </r>
       <r>   23.0461    0.0000 </r>
       <r>   26.3470    0.0000 </r>
       <r>   28.1034    0.0000 </r>
       <r>   29.4809    0.0000 </r>
       <r>   29.4813    0.0000 </r>
       <r>   31.1152    0.0000 </r>
       <r>   31.1185    0.0000 </r>
       <r>   32.0069    0.0000 </r>
       <r>   32.0075    0.0000 </r>
       <r>   32.6704    0.0000 </r>
       <r>   33.4281    0.0000 </r>
       <r>   36.3792    0.0000 </r>
       <r>   36.3829    0.0000 </r>
       <r>   36.8776    0.0000 </r>
       <r>   36.8810    0.0000 </r>
       <r>   36.8817    0.0000 </r>
       <r>   38.8776    0.0000 </r>
       <r>   39.4595    0.0000 </r>
       <r>   43.4292    0.0000 </r>
       <r>   43.4382    0.0000 </r>
       <r>   44.0444    0.0000 </r>
       <r>   44.4591    0.0000 </r>
       <r>   44.4729    0.0000 </r>
       <r>   46.0163    0.0000 </r>
       <r>   46.3851    0.0000 </r>
       <r>   46.4144    0.0000 </r>
       <r>   48.9931    0.0000 </r>
       <r>   51.3758    0.0000 </r>
       <r>   51.4555    0.0000 </r>
       <r>   53.3536    0.0000 </r>
       <r>   53.7105    0.0000 </r>
       <r>   54.5079    0.0000 </r>
       <r>   56.0766    0.0000 </r>
       <r>   56.6551    0.0000 </r>
       <r>   56.7375    0.0000 </r>
       <r>   57.9445    0.0000 </r>
       <r>   59.3317    0.0000 </r>
       <r>   59.6770    0.0000 </r>
       <r>   60.6341    0.0000 </r>
       <r>   62.1291    0.0000 </r>
      </set>
      <set comment="kpoint 21">
       <r>   -8.7976    1.0000 </r>
       <r>   -3.7402    1.0000 </r>
       <r>    2.1575    1.0000 </r>
       <r>    2.1575    1.0000 </r>
       <r>    4.5470    0.0000 </r>
       <r>    8.0022    0.0000 </r>
       <r>    8.0022    0.0000 </r>
       <r>   11.6506    0.0000 </r>
       <r>   12.9904    0.0000 </r>
       <r>   13.8601    0.0000 </r>
       <r>   13.8601    0.0000 </r>
       <r>   17.6284    0.0000 </r>
       <r>   19.0549    0.0000 </r>
       <r>   19.0549    0.0000 </r>
       <r>   21.1709    0.0000 </r>
       <r>   22.7743    0.0000 </r>
       <r>   22.7743    0.0000 </r>
       <r>   26.0847    0.0000 </r>
       <r>   28.4156    0.0000 </r>
       <r>   29.7088    0.0000 </r>
       <r>   29.7089    0.0000 </r>
       <r>   31.1509    0.0000 </r>
       <r>   31.1528    0.0000 </r>
       <r>   32.0015    0.0000 </r>
       <r>   32.0022    0.0000 </r>
       <r>   32.6247    0.0000 </r>
       <r>   33.6210    0.0000 </r>
       <r>   36.4505    0.0000 </r>
       <r>   36.4522    0.0000 </r>
       <r>   36.9521    0.0000 </r>
       <r>   36.9749    0.0000 </r>
       <r>   36.9796    0.0000 </r>
       <r>   38.9927    0.0000 </r>
       <r>   39.6019    0.0000 </r>
       <r>   43.4353    0.0000 </r>
       <r>   43.4392    0.0000 </r>
       <r>   44.0873    0.0000 </r>
       <r>   44.2668    0.0000 </r>
       <r>   44.2759    0.0000 </r>
       <r>   46.0739    0.0000 </r>
       <r>   46.1840    0.0000 </r>
       <r>   46.2408    0.0000 </r>
       <r>   48.6879    0.0000 </r>
       <r>   51.2947    0.0000 </r>
       <r>   51.5554    0.0000 </r>
       <r>   53.1889    0.0000 </r>
       <r>   53.2637    0.0000 </r>
       <r>   54.4533    0.0000 </r>
       <r>   55.9597    0.0000 </r>
       <r>   56.3406    0.0000 </r>
       <r>   56.4420    0.0000 </r>
       <r>   57.4821    0.0000 </r>
       <r>   59.3285    0.0000 </r>
       <r>   61.3463    0.0000 </r>
       <r>   61.8518    0.0000 </r>
       <r>   63.4731    0.0000 </r>
      </set>
      <set comment="kpoint 22">
       <r>   -8.8748    1.0000 </r>
       <r>   -3.5883    1.0000 </r>
       <r>    2.1825    1.0000 </r>
       <r>    2.1825    1.0000 </r>
       <r>    4.5698    0.0000 </r>
       <r>    8.0064    0.0000 </r>
       <r>    8.0064    0.0000 </r>
       <r>   11.6650    0.0000 </r>
       <r>   12.7987    0.0000 </r>
       <r>   13.7067    0.0000 </r>
       <r>   13.7067    0.0000 </r>
       <r>   17.6056    0.0000 </r>
       <r>   19.3020    0.0000 </r>
       <r>   19.3020    0.0000 </r>
       <r>   21.1385    0.0000 </r>
       <r>   22.5073    0.0000 </r>
       <r>   22.5073    0.0000 </r>
       <r>   25.8085    0.0000 </r>
       <r>   28.7459    0.0000 </r>
       <r>   29.8991    0.0000 </r>
       <r>   29.8991    0.0000 </r>
       <r>   31.2032    0.0000 </r>
       <r>   31.2064    0.0000 </r>
       <r>   32.0165    0.0000 </r>
       <r>   32.0177    0.0000 </r>
       <r>   32.5749    0.0000 </r>
       <r>   33.7792    0.0000 </r>
       <r>   36.5282    0.0000 </r>
       <r>   36.5317    0.0000 </r>
       <r>   37.0463    0.0000 </r>
       <r>   37.0855    0.0000 </r>
       <r>   37.0879    0.0000 </r>
       <r>   39.1140    0.0000 </r>
       <r>   39.7440    0.0000 </r>
       <r>   43.4390    0.0000 </r>
       <r>   43.4498    0.0000 </r>
       <r>   44.0569    0.0000 </r>
       <r>   44.0579    0.0000 </r>
       <r>   44.0674    0.0000 </r>
       <r>   46.0632    0.0000 </r>
       <r>   46.0845    0.0000 </r>
       <r>   46.1176    0.0000 </r>
       <r>   48.4084    0.0000 </r>
       <r>   51.2518    0.0000 </r>
       <r>   51.2757    0.0000 </r>
       <r>   53.0457    0.0000 </r>
       <r>   53.2975    0.0000 </r>
       <r>   54.2277    0.0000 </r>
       <r>   55.9654    0.0000 </r>
       <r>   56.4169    0.0000 </r>
       <r>   56.6716    0.0000 </r>
       <r>   57.7998    0.0000 </r>
       <r>   59.0876    0.0000 </r>
       <r>   60.3334    0.0000 </r>
       <r>   61.3926    0.0000 </r>
       <r>   62.2999    0.0000 </r>
      </set>
      <set comment="kpoint 23">
       <r>   -8.9527    1.0000 </r>
       <r>   -3.4300    1.0000 </r>
       <r>    2.2094    1.0000 </r>
       <r>    2.2094    1.0000 </r>
       <r>    4.5944    0.0000 </r>
       <r>    8.0094    0.0000 </r>
       <r>    8.0094    0.0000 </r>
       <r>   11.6688    0.0000 </r>
       <r>   12.6208    0.0000 </r>
       <r>   13.5599    0.0000 </r>
       <r>   13.5599    0.0000 </r>
       <r>   17.5369    0.0000 </r>
       <r>   19.5487    0.0000 </r>
       <r>   19.5488    0.0000 </r>
       <r>   21.1564    0.0000 </r>
       <r>   22.2464    0.0000 </r>
       <r>   22.2464    0.0000 </r>
       <r>   25.5273    0.0000 </r>
       <r>   29.0855    0.0000 </r>
       <r>   30.0435    0.0000 </r>
       <r>   30.0436    0.0000 </r>
       <r>   31.2653    0.0000 </r>
       <r>   31.2669    0.0000 </r>
       <r>   32.0668    0.0000 </r>
       <r>   32.0682    0.0000 </r>
       <r>   32.5255    0.0000 </r>
       <r>   33.9017    0.0000 </r>
       <r>   36.6104    0.0000 </r>
       <r>   36.6127    0.0000 </r>
       <r>   37.1850    0.0000 </r>
       <r>   37.1945    0.0000 </r>
       <r>   37.1955    0.0000 </r>
       <r>   39.2410    0.0000 </r>
       <r>   39.8893    0.0000 </r>
       <r>   43.4240    0.0000 </r>
       <r>   43.4259    0.0000 </r>
       <r>   43.8052    0.0000 </r>
       <r>   43.8210    0.0000 </r>
       <r>   44.1078    0.0000 </r>
       <r>   46.0297    0.0000 </r>
       <r>   46.0329    0.0000 </r>
       <r>   46.0574    0.0000 </r>
       <r>   48.1162    0.0000 </r>
       <r>   51.1238    0.0000 </r>
       <r>   51.2027    0.0000 </r>
       <r>   52.8542    0.0000 </r>
       <r>   53.2305    0.0000 </r>
       <r>   54.0107    0.0000 </r>
       <r>   55.6599    0.0000 </r>
       <r>   55.9326    0.0000 </r>
       <r>   56.8557    0.0000 </r>
       <r>   57.5474    0.0000 </r>
       <r>   58.9113    0.0000 </r>
       <r>   60.2165    0.0000 </r>
       <r>   60.4906    0.0000 </r>
       <r>   61.4474    0.0000 </r>
      </set>
      <set comment="kpoint 24">
       <r>   -9.0308    1.0000 </r>
       <r>   -3.2656    1.0000 </r>
       <r>    2.2382    1.0000 </r>
       <r>    2.2382    1.0000 </r>
       <r>    4.6206    0.0000 </r>
       <r>    8.0108    0.0000 </r>
       <r>    8.0108    0.0000 </r>
[...]
       <r>    4.8458    0.0000 </r>
       <r>   14.3222    0.0000 </r>
       <r>   14.3226    0.0000 </r>
       <r>   16.3195    0.0000 </r>
       <r>   16.6659    0.0000 </r>
       <r>   17.0339    0.0000 </r>
       <r>   17.0347    0.0000 </r>
       <r>   17.8133    0.0000 </r>
       <r>   18.1673    0.0000 </r>
       <r>   23.2784    0.0000 </r>
       <r>   23.3372    0.0000 </r>
       <r>   23.3373    0.0000 </r>
       <r>   23.8869    0.0000 </r>
       <r>   23.9956    0.0000 </r>
       <r>   23.9961    0.0000 </r>
       <r>   24.1186    0.0000 </r>
       <r>   24.7187    0.0000 </r>
       <r>   31.5509    0.0000 </r>
       <r>   31.8181    0.0000 </r>
       <r>   33.4898    0.0000 </r>
       <r>   33.4900    0.0000 </r>
       <r>   36.8294    0.0000 </r>
       <r>   36.8332    0.0000 </r>
       <r>   36.8363    0.0000 </r>
       <r>   37.5511    0.0000 </r>
       <r>   39.6492    0.0000 </r>
       <r>   39.6939    0.0000 </r>
       <r>   39.7219    0.0000 </r>
       <r>   39.7680    0.0000 </r>
       <r>   41.2090    0.0000 </r>
       <r>   41.2338    0.0000 </r>
       <r>   43.4240    0.0000 </r>
       <r>   43.4568    0.0000 </r>
       <r>   43.7515    0.0000 </r>
       <r>   43.7524    0.0000 </r>
       <r>   48.0722    0.0000 </r>
       <r>   48.1733    0.0000 </r>
       <r>   51.2855    0.0000 </r>
       <r>   51.5503    0.0000 </r>
       <r>   52.0710    0.0000 </r>
       <r>   55.6998    0.0000 </r>
       <r>   57.2892    0.0000 </r>
       <r>   57.7075    0.0000 </r>
       <r>   59.0852    0.0000 </r>
       <r>   59.2548    0.0000 </r>
       <r>   61.0320    0.0000 </r>
       <r>   62.7065    0.0000 </r>
       <r>   67.1660    0.0000 </r>
       <r>   68.9504    0.0000 </r>
       <r>   69.3841    0.0000 </r>
       <r>   73.3254    0.0000 </r>
      </set>
      <set comment="kpoint 108">
       <r>   -6.1764    1.0000 </r>
       <r>   -6.1764    1.0000 </r>
       <r>    0.1678    1.0000 </r>
       <r>    0.1678    1.0000 </r>
       <r>    4.7996    0.0000 </r>
       <r>    4.7996    0.0000 </r>
       <r>   14.3412    0.0000 </r>
       <r>   14.3416    0.0000 </r>
       <r>   16.4966    0.0000 </r>
       <r>   16.4970    0.0000 </r>
       <r>   17.0138    0.0000 </r>
       <r>   17.0140    0.0000 </r>
       <r>   17.9884    0.0000 </r>
       <r>   17.9889    0.0000 </r>
       <r>   23.5801    0.0000 </r>
       <r>   23.5862    0.0000 </r>
       <r>   23.6198    0.0000 </r>
       <r>   23.6224    0.0000 </r>
       <r>   23.7005    0.0000 </r>
       <r>   23.7044    0.0000 </r>
       <r>   24.4138    0.0000 </r>
       <r>   24.4141    0.0000 </r>
       <r>   31.6844    0.0000 </r>
       <r>   31.6943    0.0000 </r>
       <r>   33.4971    0.0000 </r>
       <r>   33.4994    0.0000 </r>
       <r>   36.8212    0.0000 </r>
       <r>   36.8691    0.0000 </r>
       <r>   37.2120    0.0000 </r>
       <r>   37.2491    0.0000 </r>
       <r>   39.6526    0.0000 </r>
       <r>   39.6830    0.0000 </r>
       <r>   39.7050    0.0000 </r>
       <r>   39.7696    0.0000 </r>
       <r>   41.2307    0.0000 </r>
       <r>   41.2717    0.0000 </r>
       <r>   43.4751    0.0000 </r>
       <r>   43.5240    0.0000 </r>
       <r>   43.7299    0.0000 </r>
       <r>   43.8060    0.0000 </r>
       <r>   48.1041    0.0000 </r>
       <r>   48.3761    0.0000 </r>
       <r>   51.5718    0.0000 </r>
       <r>   51.8859    0.0000 </r>
       <r>   52.2742    0.0000 </r>
       <r>   56.5253    0.0000 </r>
       <r>   57.6129    0.0000 </r>
       <r>   58.0330    0.0000 </r>
       <r>   58.9328    0.0000 </r>
       <r>   59.5099    0.0000 </r>
       <r>   62.5579    0.0000 </r>
       <r>   64.3940    0.0000 </r>
       <r>   67.5961    0.0000 </r>
       <r>   69.2007    0.0000 </r>
       <r>   71.1957    0.0000 </r>
       <r>   74.2266    0.0000 </r>
      </set>
     </set>
    </set>
   </array>
  </eigenvalues>
  <separator name="orbital magnetization" >
   <v name="MAGDIPOLOUT">      0.00000000      0.00000000      0.00000000</v>
  </separator>
  <dos>
   <i name="efermi">      3.93431596 </i>
   <total>
    <array>
     <dimension dim="1">gridpoints</dimension>
     <dimension dim="2">spin</dimension>
     <field>energy</field>
     <field>total</field>
     <field>integrated</field>
     <set>
      <set comment="spin 1">
       <r>   -14.7957     0.0000     0.0000 </r>
       <r>   -14.4848     0.0000     0.0000 </r>
       <r>   -14.1739     0.0000     0.0000 </r>
       <r>   -13.8631     0.0000     0.0000 </r>
       <r>   -13.5522     0.0000     0.0000 </r>
       <r>   -13.2413     0.0000     0.0000 </r>
       <r>   -12.9305     0.0000     0.0000 </r>
       <r>   -12.6196     0.0000     0.0000 </r>
       <r>   -12.3087     0.0000     0.0000 </r>
       <r>   -11.9978     0.0000     0.0000 </r>
       <r>   -11.6870     0.0000     0.0000 </r>
       <r>   -11.3761     0.0000     0.0000 </r>
       <r>   -11.0652     0.0000     0.0000 </r>
       <r>   -10.7544     0.0000     0.0000 </r>
       <r>   -10.4435     0.1005     0.0312 </r>
       <r>   -10.1326     0.0000     0.0312 </r>
       <r>    -9.8217     0.0027     0.0321 </r>
       <r>    -9.5109     0.8061     0.2827 </r>
       <r>    -9.2000     0.5985     0.4687 </r>
       <r>    -8.8891     0.0000     0.4688 </r>
       <r>    -8.5783     0.0001     0.4688 </r>
       <r>    -8.2674     1.2238     0.8492 </r>
       <r>    -7.9565     0.3845     0.9688 </r>
       <r>    -7.6456     2.4068     1.7169 </r>
       <r>    -7.3348     0.0000     1.7188 </r>
       <r>    -7.0239     0.0000     1.7188 </r>
       <r>    -6.7130     0.0000     1.7188 </r>
       <r>    -6.4022     0.0000     1.7188 </r>
       <r>    -6.0913     0.8482     1.9824 </r>
       <r>    -5.7804     0.9613     2.2812 </r>
       <r>    -5.4695     0.0000     2.2812 </r>
       <r>    -5.1587     0.0000     2.2812 </r>
       <r>    -4.8478     0.0033     2.2823 </r>
       <r>    -4.5369     0.5259     2.4458 </r>
       <r>    -4.2261     2.2855     3.1562 </r>
       <r>    -3.9152     0.0000     3.1562 </r>
       <r>    -3.6043     0.0024     3.1570 </r>
       <r>    -3.2934     1.2039     3.5312 </r>
       <r>    -2.9826     0.0000     3.5312 </r>
       <r>    -2.6717     0.0000     3.5312 </r>
       <r>    -2.3608     0.0000     3.5312 </r>
       <r>    -2.0500     0.0000     3.5312 </r>
       <r>    -1.7391     0.0000     3.5313 </r>
       <r>    -1.4282     0.8603     3.7987 </r>
       <r>    -1.1173     0.5470     3.9688 </r>
       <r>    -0.8065     0.0049     3.9703 </r>
       <r>    -0.4956     3.3023     4.9969 </r>
       <r>    -0.1847     1.5179     5.4688 </r>
       <r>     0.1261     0.0720     5.4911 </r>
       <r>     0.4370     0.5311     5.6562 </r>
       <r>     0.7479     0.0000     5.6563 </r>
       <r>     1.0588     2.4125     6.4062 </r>
       <r>     1.3696     1.0409     6.7298 </r>
       <r>     1.6805     0.1654     6.7813 </r>
       <r>     1.9914     1.4207     7.2229 </r>
       <r>     2.3022     0.5898     7.4062 </r>
       <r>     2.6131     1.0974     7.7474 </r>
       <r>     2.9240     0.5109     7.9062 </r>
       <r>     3.2349     0.0000     7.9062 </r>
       <r>     3.5457     0.1605     7.9561 </r>
       <r>     3.8566     0.1411     8.0000 </r>
       <r>     4.1675     0.0000     8.0000 </r>
       <r>     4.4783     0.3892     8.1210 </r>
       <r>     4.7892     0.3451     8.2283 </r>
       <r>     5.1001     1.5571     8.7124 </r>
       <r>     5.4110     0.2223     8.7815 </r>
       <r>     5.7218     2.4119     9.5312 </r>
       <r>     6.0327     0.0000     9.5313 </r>
       <r>     6.3436     1.2062     9.9062 </r>
       <r>     6.6544     0.0043     9.9076 </r>
       <r>     6.9653     0.3168    10.0061 </r>
       <r>     7.2762     0.5836    10.1875 </r>
       <r>     7.5871     0.0000    10.1875 </r>
       <r>     7.8979     1.2402    10.5730 </r>
       <r>     8.2088     1.1724    10.9375 </r>
       <r>     8.5197     0.0115    10.9411 </r>
       <r>     8.8305     3.5677    12.0502 </r>
       <r>     9.1414     1.6397    12.5599 </r>
       <r>     9.4523     1.3734    12.9868 </r>
       <r>     9.7632     2.5117    13.7676 </r>
       <r>    10.0740     1.7577    14.3141 </r>
       <r>    10.3849     2.0052    14.9374 </r>
       <r>    10.6958     2.3864    15.6794 </r>
       <r>    11.0066     0.1267    15.7187 </r>
       <r>    11.3175     0.0000    15.7188 </r>
       <r>    11.6284     0.9915    16.0270 </r>
       <r>    11.9393     1.2184    16.4058 </r>
       <r>    12.2501     0.0000    16.4063 </r>
       <r>    12.5610     1.9786    17.0214 </r>
       <r>    12.8719     0.4338    17.1562 </r>
       <r>    13.1827     0.0000    17.1562 </r>
       <r>    13.4936     0.0000    17.1563 </r>
       <r>    13.8045     0.2010    17.2187 </r>
       <r>    14.1154     1.1875    17.5879 </r>
       <r>    14.4262     0.6171    17.7797 </r>
       <r>    14.7371     2.9501    18.6968 </r>
       <r>    15.0480     0.6736    18.9063 </r>
       <r>    15.3588     0.7039    19.1251 </r>
       <r>    15.6697     1.5749    19.6147 </r>
       <r>    15.9806     3.6520    20.7500 </r>
       <r>    16.2915     0.4021    20.8750 </r>
       <r>    16.6023     4.5138    22.2782 </r>
       <r>    16.9132     0.9131    22.5641 </r>
       <r>    17.2241     3.8147    23.7500 </r>
       <r>    17.5349     1.6151    24.2521 </r>
       <r>    17.8458     3.2100    25.2500 </r>
       <r>    18.1567     1.2063    25.6250 </r>
       <r>    18.4676     1.3067    26.0312 </r>
       <r>    18.7784     0.0000    26.0312 </r>
       <r>    19.0893     0.0000    26.0312 </r>
       <r>    19.4002     0.4534    26.1722 </r>
       <r>    19.7110     1.1550    26.5312 </r>
       <r>    20.0219     0.0000    26.5312 </r>
       <r>    20.3328     0.0000    26.5312 </r>
       <r>    20.6437     0.0000    26.5313 </r>
       <r>    20.9545     2.2741    27.2382 </r>
       <r>    21.2654     0.5895    27.4230 </r>
       <r>    21.5763     1.9566    28.0313 </r>
       <r>    21.8871     1.1893    28.4010 </r>
       <r>    22.1980     0.9869    28.7078 </r>
       <r>    22.5089     3.7761    29.8817 </r>
       <r>    22.8198     2.4916    30.6562 </r>
       <r>    23.1306     0.0642    30.6762 </r>
       <r>    23.4415     2.5111    31.4568 </r>
       <r>    23.7524     5.7786    33.2532 </r>
       <r>    24.0632     3.3604    34.2979 </r>
       <r>    24.3741     2.7798    35.1620 </r>
       <r>    24.6850     3.9299    36.3837 </r>
       <r>    24.9959     0.0726    36.4063 </r>
       <r>    25.3067     0.6248    36.6005 </r>
       <r>    25.6176     2.3909    37.3437 </r>
       <r>    25.9285     0.0000    37.3438 </r>
       <r>    26.2393     2.0136    37.9697 </r>
       <r>    26.5502     3.2016    38.9651 </r>
       <r>    26.8611     0.0000    38.9688 </r>
       <r>    27.1720     0.0000    38.9688 </r>
       <r>    27.4828     0.0000    38.9688 </r>
       <r>    27.7937     1.1077    39.3131 </r>
       <r>    28.1046     1.3048    39.7187 </r>
       <r>    28.4154     0.0538    39.7355 </r>
       <r>    28.7263     3.5650    40.8437 </r>
       <r>    29.0372     2.0054    41.4672 </r>
       <r>    29.3481     0.7088    41.6875 </r>
       <r>    29.6589     1.6575    42.2028 </r>
       <r>    29.9698     2.3811    42.9442 </r>
       <r>    30.2807     2.5386    43.7334 </r>
       <r>    30.5915     2.6756    44.5652 </r>
       <r>    30.9024     2.7047    45.4062 </r>
       <r>    31.2133     2.9907    46.3360 </r>
       <r>    31.5242     2.7494    47.1919 </r>
       <r>    31.8350     3.0016    48.1250 </r>
       <r>    32.1459     0.8888    48.4013 </r>
       <r>    32.4568     3.0614    49.3530 </r>
       <r>    32.7676     3.2659    50.3683 </r>
       <r>    33.0785     6.3555    52.3440 </r>
       <r>    33.3894     0.0972    52.3752 </r>
       <r>    33.7003     1.2052    52.7499 </r>
       <r>    34.0111     0.8117    53.0022 </r>
       <r>    34.3220     3.8704    54.2054 </r>
       <r>    34.6329     1.5507    54.6875 </r>
       <r>    34.9437     1.4993    55.1536 </r>
       <r>    35.2546     0.1091    55.1875 </r>
       <r>    35.5655     2.2402    55.8839 </r>
       <r>    35.8764     0.1724    55.9375 </r>
       <r>    36.1872     1.0328    56.2586 </r>
       <r>    36.4981     0.5755    56.4375 </r>
       <r>    36.8090     0.2651    56.5199 </r>
       <r>    37.1198     0.4987    56.6750 </r>
       <r>    37.4307     3.1787    57.6631 </r>
       <r>    37.7416     2.4586    58.4274 </r>
       <r>    38.0525     3.1349    59.4020 </r>
       <r>    38.3633     3.5499    60.5056 </r>
       <r>    38.6742     1.4974    60.9711 </r>
       <r>    38.9851     2.0024    61.5936 </r>
       <r>    39.2959     3.3020    62.6201 </r>
       <r>    39.6068     2.8578    63.5085 </r>
       <r>    39.9177     1.8333    64.0785 </r>
       <r>    40.2286     3.6467    65.2121 </r>
       <r>    40.5394     5.1906    66.8260 </r>
       <r>    40.8503     6.9481    68.9860 </r>
       <r>    41.1612     2.6778    69.8186 </r>
       <r>    41.4720     1.9909    70.4375 </r>
       <r>    41.7829     0.0000    70.4375 </r>
       <r>    42.0938     0.0000    70.4375 </r>
       <r>    42.4047     1.1188    70.7853 </r>
       <r>    42.7155     0.1943    70.8457 </r>
       <r>    43.0264     1.5731    71.3348 </r>
       <r>    43.3373     1.0436    71.6592 </r>
       <r>    43.6481     2.9914    72.5891 </r>
       <r>    43.9590     4.0918    73.8611 </r>
       <r>    44.2699     0.0446    73.8750 </r>
       <r>    44.5808     0.0021    73.8757 </r>
       <r>    44.8916     1.0802    74.2115 </r>
       <r>    45.2025     2.0873    74.8604 </r>
       <r>    45.5134     2.1141    75.5176 </r>
       <r>    45.8242     2.1320    76.1804 </r>
       <r>    46.1351     6.9661    78.3459 </r>
       <r>    46.4460     2.1094    79.0019 </r>
       <r>    46.7569     0.2956    79.0938 </r>
       <r>    47.0677     6.1621    81.0094 </r>
       <r>    47.3786     2.2819    81.7188 </r>
       <r>    47.6895     1.5154    82.1899 </r>
       <r>    48.0003     2.0821    82.8373 </r>
       <r>    48.3112     2.6868    83.6725 </r>
       <r>    48.6221     3.6219    84.8003 </r>
       <r>    48.9330     0.0391    84.8125 </r>
       <r>    49.2438     0.9961    85.1221 </r>
       <r>    49.5547     2.2206    85.8125 </r>
       <r>    49.8656     0.8919    86.0898 </r>
       <r>    50.1764     4.1993    87.3952 </r>
       <r>    50.4873     0.7485    87.6293 </r>
       <r>    50.7982     3.7181    88.7851 </r>
       <r>    51.1091     5.0260    90.3476 </r>
       <r>    51.4199     1.2682    90.7418 </r>
       <r>    51.7308     2.6949    91.5796 </r>
       <r>    52.0417     2.4010    92.3260 </r>
       <r>    52.3525     2.6710    93.1563 </r>
       <r>    52.6634     5.6278    94.9059 </r>
       <r>    52.9743     0.2149    94.9731 </r>
       <r>    53.2852     5.4635    96.6715 </r>
       <r>    53.5960     0.8412    96.9336 </r>
       <r>    53.9069     2.5949    97.7403 </r>
       <r>    54.2178     0.5337    97.9062 </r>
       <r>    54.5286     0.0030    97.9072 </r>
       <r>    54.8395     1.2033    98.2813 </r>
       <r>    55.1504     3.1175    99.2504 </r>
       <r>    55.4613     1.1332    99.6027 </r>
       <r>    55.7721     0.7000    99.8203 </r>
       <r>    56.0830     2.9524   100.7381 </r>
       <r>    56.3939     0.7420   100.9687 </r>
       <r>    56.7047     0.0000   100.9688 </r>
       <r>    57.0156     3.4562   102.0432 </r>
       <r>    57.3265     2.4570   102.8082 </r>
       <r>    57.6374     4.1834   104.1088 </r>
       <r>    57.9482     4.0721   105.3747 </r>
       <r>    58.2591     0.6019   105.5621 </r>
       <r>    58.5700     1.7573   106.1088 </r>
       <r>    58.8808     2.4700   106.8768 </r>
       <r>    59.1917     1.4018   107.3126 </r>
       <r>    59.5026     1.4624   107.7672 </r>
       <r>    59.8135     0.1069   107.8005 </r>
       <r>    60.1243     4.3456   109.1514 </r>
       <r>    60.4352     1.5354   109.6287 </r>
       <r>    60.7461     0.8928   109.9062 </r>
       <r>    61.0569     0.0000   109.9063 </r>
       <r>    61.3678     3.1623   110.8893 </r>
       <r>    61.6787     0.5564   111.0623 </r>
       <r>    61.9896     0.0000   111.0625 </r>
       <r>    62.3004     0.5287   111.2269 </r>
       <r>    62.6113     0.0745   111.2500 </r>
       <r>    62.9222     2.4073   111.9984 </r>
       <r>    63.2330     0.0000   112.0000 </r>
       <r>    63.5439     0.0000   112.0000 </r>
       <r>    63.8548     0.0000   112.0000 </r>
       <r>    64.1657     0.0000   112.0000 </r>
       <r>    64.4765     0.0000   112.0000 </r>
       <r>    64.7874     0.0000   112.0000 </r>
       <r>    65.0983     0.0000   112.0000 </r>
       <r>    65.4091     0.0000   112.0000 </r>
       <r>    65.7200     0.0000   112.0000 </r>
       <r>    66.0309     0.0000   112.0000 </r>
       <r>    66.3418     0.0000   112.0000 </r>
       <r>    66.6526     0.0000   112.0000 </r>
       <r>    66.9635     0.0000   112.0000 </r>
       <r>    67.2744     0.0000   112.0000 </r>
       <r>    67.5852     0.0000   112.0000 </r>
       <r>    67.8961     0.0000   112.0000 </r>
       <r>    68.2070     0.0000   112.0000 </r>
       <r>    68.5179     0.0000   112.0000 </r>
       <r>    68.8287     0.0000   112.0000 </r>
       <r>    69.1396     0.0000   112.0000 </r>
       <r>    69.4505     0.0000   112.0000 </r>
       <r>    69.7613     0.0000   112.0000 </r>
       <r>    70.0722     0.0000   112.0000 </r>
       <r>    70.3831     0.0000   112.0000 </r>
       <r>    70.6940     0.0000   112.0000 </r>
       <r>    71.0048     0.0000   112.0000 </r>
       <r>    71.3157     0.0000   112.0000 </r>
       <r>    71.6266     0.0000   112.0000 </r>
       <r>    71.9374     0.0000   112.0000 </r>
       <r>    72.2483     0.0000   112.0000 </r>
       <r>    72.5592     0.0000   112.0000 </r>
       <r>    72.8701     0.0000   112.0000 </r>
       <r>    73.1809     0.0000   112.0000 </r>
       <r>    73.4918     0.0000   112.0000 </r>
       <r>    73.8027     0.0000   112.0000 </r>
       <r>    74.1135     0.0000   112.0000 </r>
       <r>    74.4244     0.0000   112.0000 </r>
       <r>    74.7353     0.0000   112.0000 </r>
       <r>    75.0462     0.0000   112.0000 </r>
       <r>    75.3570     0.0000   112.0000 </r>
       <r>    75.6679     0.0000   112.0000 </r>
       <r>    75.9788     0.0000   112.0000 </r>
       <r>    76.2896     0.0000   112.0000 </r>
       <r>    76.6005     0.0000   112.0000 </r>
       <r>    76.9114     0.0000   112.0000 </r>
       <r>    77.2223     0.0000   112.0000 </r>
       <r>    77.5331     0.0000   112.0000 </r>
       <r>    77.8440     0.0000   112.0000 </r>
       <r>    78.1549     0.0000   112.0000 </r>
       <r>    78.4657     0.0000   112.0000 </r>
      </set>
     </set>
    </array>
   </total>
  </dos>
 </calculation>
 <structure name="finalpos" >
  <crystal>
   <varray name="basis" >
    <v>       0.00000000       2.81649843       2.81649843 </v>
    <v>       2.81649843       0.00000000       2.81649843 </v>
    <v>       2.81649843       2.81649843       0.00000000 </v>
   </varray>
   <i name="volume">     44.68466790 </i>
   <varray name="rec_basis" >
    <v>      -0.17752540       0.17752540       0.17752540 </v>
    <v>       0.17752540      -0.17752540       0.17752540 </v>
    <v>       0.17752540       0.17752540      -0.17752540 </v>
   </varray>
  </crystal>
  <varray name="positions" >
   <v>       0.00000000       0.00000000       0.00000000 </v>
   <v>       0.25000000       0.25000000       0.25000000 </v>
  </varray>
 </structure>
</modeling>
