unknown system                          
   1.00000000000000     
     0.000000    2.816500    2.816500
     2.816500    0.000000    2.816500
     2.816500    2.816500    0.000000
   Ge
     2
Direct
  0.000000  0.000000  0.000000
  0.250000  0.250000  0.250000
 
   48   48   48
 -6.9125     -6.1263     -3.8827     -.50554      3.5334      7.7018      11.502      14.551      16.624      17.662    
  17.748      17.063      15.848      14.364      12.859      11.516      10.357      9.3659      8.5332      7.8511    
  7.3116      6.9059      6.6246      6.4596      6.4053      6.4596      6.6246      6.9059      7.3116      7.8511    
  8.5332      9.3659      10.357      11.516      12.859      14.364      15.848      17.063      17.748      17.662    
  16.624      14.551      11.502      7.7018      3.5334     -.50554     -3.8827     -6.1263     -6.1263     -4.6320    
 -1.8528      1.8293      5.9279      9.9383      13.421      16.064      17.712      18.359      18.126      17.217    
  15.887      14.398      12.989      11.756      10.691      9.7812      9.0216      8.4065      7.9290      7.5811    
  7.3548      7.2435      7.2435      7.3548      7.5811      7.9290      8.4065      9.0216      9.7812      10.691    
  11.756      12.989      14.398      15.887      17.217      18.126      18.359      17.712      16.064      13.421    
  9.9383      5.9279      1.8293     -1.8528     -4.6320     -6.1263     -3.8827     -1.8528      1.2246      4.9450    
  8.8422      12.466      15.450      17.558      18.698      18.915      18.358      17.253      15.859      14.434    
  13.156      12.039      11.072      10.251      9.5712      9.0289      8.6182      8.3320      8.1635      8.1078    
  8.1635      8.3320      8.6182      9.0289      9.5712      10.251      11.072      12.039      13.156      14.434    
  15.859      17.253      18.358      18.915      18.698      17.558      15.450      12.466      8.8422      4.9450    
  1.2246     -1.8528     -3.8827     -4.5916     -.50554      1.8293      4.9450      8.4483      11.920      14.981    
  17.343      18.843      19.446      19.239      18.399      17.162      15.787      14.498      13.359      12.362    
  11.501      10.774      10.180      9.7157      9.3755      9.1532      9.0435      9.0435      9.1532      9.3755    
  9.7157      10.180      10.774      11.501      12.362      13.359      14.498      15.787      17.162      18.399    
  19.239      19.446      18.843      17.343      14.981      11.920      8.4483      4.9450      1.8293     -.50554    
 -1.7555     -1.7555      3.5334      5.9279      8.8422      11.920      14.806      17.197      18.882      19.762    
  19.855      19.282      18.242      16.974      15.718      14.592      13.596      12.723      11.973      11.348    
  10.845      10.463      10.195      10.037      9.9842      10.037      10.195      10.463      10.845      11.348    
  11.973      12.723      13.596      14.592      15.718      16.974      18.242      19.282      19.855      19.762    
  18.882      17.197      14.806      11.920      8.8422      5.9279      3.5334      1.9613      1.4136      1.9613    
  7.7018      9.9383      12.466      14.981      17.197      18.886      19.905      20.216      19.879      19.047    
  17.928      16.752      15.677      14.716      13.864      13.121      12.489      11.970      11.563      11.263    
  11.066      10.968      10.968      11.066      11.263      11.563      11.970      12.489      13.121      13.864    
  14.716      15.677      16.752      17.928      19.047      19.879      20.216      19.905      18.886      17.197    
  14.981      12.466      9.9383      7.7018      6.0332      5.1424      5.1424      6.0332      11.502      13.421    
  15.450      17.343      18.882      19.905      20.334      20.179      19.542      18.594      17.540      16.554    
  15.664      14.867      14.163      13.555      13.047      12.637      12.319      12.090      11.952      11.906    
  11.952      12.090      12.319      12.637      13.047      13.555      14.163      14.867      15.664      16.554    
  17.540      18.594      19.542      20.179      20.334      19.905      18.882      17.343      15.450      13.421    
  11.502      9.9299      8.9003      8.5421      8.9003      9.9299      14.551      16.064      17.558      18.843    
  19.762      20.216      20.179      19.710      18.936      18.034      17.171      16.386      15.677      15.045    
  14.494      14.025      13.630      13.305      13.053      12.880      12.792      12.792      12.880      13.053    
  13.305      13.630      14.025      14.494      15.045      15.677      16.386      17.171      18.034      18.936    
  19.710      20.179      20.216      19.762      18.843      17.558      16.064      14.551      13.210      12.210    
  11.677      11.677      12.210      13.210      16.624      17.712      18.698      19.446      19.855      19.879    
  19.542      18.936      18.203      17.489      16.838      16.247      15.718      15.253      14.848      14.489    
  14.175      13.911      13.710      13.583      13.540      13.583      13.710      13.911      14.175      14.489    
  14.848      15.253      15.718      16.247      16.838      17.489      18.203      18.936      19.542      19.879    
  19.855      19.446      18.698      17.712      16.624      15.582      14.726      14.164      13.969      14.164    
  14.726      15.582      17.662      18.359      18.915      19.239      19.282      19.047      18.594      18.034    
  17.489      16.992      16.542      16.139      15.787      15.471      15.172      14.888      14.628      14.410    
  14.253      14.170      14.170      14.253      14.410      14.628      14.888      15.172      15.471      15.787    
  16.139      16.542      16.992      17.489      18.034      18.594      19.047      19.282      19.239      18.915    
  18.359      17.662      16.931      16.273      15.779      15.515      15.515      15.779      16.273      16.931    
  17.748      18.126      18.358      18.399      18.242      17.928      17.540      17.171      16.838      16.542    
  16.283      16.062      15.859      15.645      15.415      15.181      14.964      14.787      14.672      14.632    
  14.672      14.787      14.964      15.181      15.415      15.645      15.859      16.062      16.283      16.542    
  16.838      17.171      17.540      17.928      18.242      18.399      18.358      18.126      17.748      17.293    
  16.841      16.461      16.209      16.122      16.209      16.461      16.841      17.293      17.063      17.217    
  17.253      17.162      16.974      16.752      16.554      16.386      16.247      16.139      16.062      15.990    
  15.887      15.739      15.556      15.362      15.183      15.047      14.974      14.974      15.047      15.183    
  15.362      15.556      15.739      15.887      15.990      16.062      16.139      16.247      16.386      16.554    
  16.752      16.974      17.162      17.253      17.217      17.063      16.824      16.550      16.291      16.092    
  15.984      15.984      16.092      16.291      16.550      16.824      15.848      15.887      15.859      15.787    
  15.718      15.677      15.664      15.677      15.718      15.787      15.859      15.887      15.848      15.746    
  15.600      15.443      15.304      15.210      15.177      15.210      15.304      15.443      15.600      15.746    
  15.848      15.887      15.859      15.787      15.718      15.677      15.664      15.677      15.718      15.787    
  15.859      15.887      15.848      15.746      15.600      15.443      15.304      15.210      15.177      15.210    
  15.304      15.443      15.600      15.746      14.364      14.398      14.434      14.498      14.592      14.716    
  14.867      15.045      15.253      15.471      15.645      15.739      15.746      15.680      15.571      15.454    
  15.357      15.303      15.303      15.357      15.454      15.571      15.680      15.746      15.739      15.645    
  15.471      15.253      15.045      14.867      14.716      14.592      14.498      14.434      14.398      14.364    
  14.309      14.230      14.136      14.045      13.973      13.933      13.933      13.973      14.045      14.136    
  14.230      14.309      12.859      12.989      13.156      13.359      13.596      13.864      14.163      14.494    
  14.848      15.172      15.415      15.556      15.600      15.571      15.503      15.426      15.370      15.349    
  15.370      15.426      15.503      15.571      15.600      15.556      15.415      15.172      14.848      14.494    
  14.163      13.864      13.596      13.359      13.156      12.989      12.859      12.761      12.678      12.600    
  12.527      12.467      12.427      12.413      12.427      12.467      12.527      12.600      12.678      12.761    
  11.516      11.756      12.039      12.362      12.723      13.121      13.555      14.025      14.489      14.888    
  15.181      15.362      15.443      15.454      15.426      15.390      15.367      15.367      15.390      15.426    
  15.454      15.443      15.362      15.181      14.888      14.489      14.025      13.555      13.121      12.723    
  12.362      12.039      11.756      11.516      11.320      11.165      11.046      10.954      10.884      10.835    
  10.810      10.810      10.835      10.884      10.954      11.046      11.165      11.320      10.357      10.691    
  11.072      11.501      11.973      12.489      13.047      13.630      14.175      14.628      14.964      15.183    
  15.304      15.357      15.370      15.367      15.364      15.367      15.370      15.357      15.304      15.183    
  14.964      14.628      14.175      13.630      13.047      12.489      11.973      11.501      11.072      10.691    
  10.357      10.073      9.8381      9.6493      9.5022      9.3922      9.3155      9.2701      9.2549      9.2701    
  9.3155      9.3922      9.5022      9.6493      9.8381      10.073      9.3659      9.7812      10.251      10.774    
  11.348      11.970      12.637      13.305      13.911      14.410      14.787      15.047      15.210      15.303    
  15.349      15.367      15.367      15.349      15.303      15.210      15.047      14.787      14.410      13.911    
  13.305      12.637      11.970      11.348      10.774      10.251      9.7812      9.3659      9.0066      8.7029    
  8.4525      8.2517      8.0959      7.9816      7.9061      7.8686      7.8686      7.9061      7.9816      8.0959    
  8.2517      8.4525      8.7029      9.0066      8.5332      9.0216      9.5712      10.180      10.845      11.563    
  12.319      13.053      13.710      14.253      14.672      14.974      15.177      15.303      15.370      15.390    
  15.370      15.303      15.177      14.974      14.672      14.253      13.710      13.053      12.319      11.563    
  10.845      10.180      9.5712      9.0216      8.5332      8.1071      7.7429      7.4384      7.1898      6.9926    
  6.8426      6.7367      6.6735      6.6525      6.6735      6.7367      6.8426      6.9926      7.1898      7.4384    
  7.7429      8.1071      7.8511      8.4065      9.0289      9.7157      10.463      11.263      12.090      12.880    
  13.583      14.170      14.632      14.974      15.210      15.357      15.426      15.426      15.357      15.210    
  14.974      14.632      14.170      13.583      12.880      12.090      11.263      10.463      9.7157      9.0289    
  8.4065      7.8511      7.3640      6.9449      6.5916      6.3000      6.0651      5.8820      5.7469      5.6575    
  5.6129      5.6129      5.6575      5.7469      5.8820      6.0651      6.3000      6.5916      6.9449      7.3640    
  7.3116      7.9290      8.6182      9.3755      10.195      11.066      11.952      12.792      13.540      14.170    
  14.672      15.047      15.304      15.454      15.503      15.454      15.304      15.047      14.672      14.170    
  13.540      12.792      11.952      11.066      10.195      9.3755      8.6182      7.9290      7.3116      6.7679    
  6.2979      5.8993      5.5677      5.2977      5.0837      4.9209      4.8060      4.7375      4.7147      4.7375    
  4.8060      4.9209      5.0837      5.2977      5.5677      5.8993      6.2979      6.7679      6.9059      7.5811    
  8.3320      9.1532      10.037      10.968      11.906      12.792      13.583      14.253      14.787      15.183    
  15.443      15.571      15.571      15.443      15.183      14.787      14.253      13.583      12.792      11.906    
  10.968      10.037      9.1532      8.3320      7.5811      6.9059      6.3090      5.7907      5.3490      4.9794    
  4.6760      4.4326      4.2434      4.1041      4.0122      3.9664      3.9664      4.0122      4.1041      4.2434    
  4.4326      4.6760      4.9794      5.3490      5.7907      6.3090      6.6246      7.3548      8.1635      9.0435    
  9.9842      10.968      11.952      12.880      13.710      14.410      14.964      15.362      15.600      15.680    
  15.600      15.362      14.964      14.410      13.710      12.880      11.952      10.968      9.9842      9.0435    
  8.1635      7.3548      6.6246      5.9767      5.4120      4.9285      4.5219      4.1860      3.9140      3.6992    
  3.5364      3.4220      3.3540      3.3314      3.3540      3.4220      3.5364      3.6992      3.9140      4.1860    
  4.5219      4.9285      5.4120      5.9767      6.4596      7.2435      8.1078      9.0435      10.037      11.066    
  12.090      13.053      13.911      14.628      15.181      15.556      15.746      15.746      15.556      15.181    
  14.628      13.911      13.053      12.090      11.066      10.037      9.0435      8.1078      7.2435      6.4596    
  5.7615      5.1507      4.6258      4.1823      3.8140      3.5134      3.2733      3.0875      2.9514      2.8620    
  2.8176      2.8176      2.8620      2.9514      3.0875      3.2733      3.5134      3.8140      4.1823      4.6258    
  5.1507      5.7615      6.4053      7.2435      8.1635      9.1532      10.195      11.263      12.319      13.305    
  14.175      14.888      15.415      15.739      15.848      15.739      15.415      14.888      14.175      13.305    
  12.319      11.263      10.195      9.1532      8.1635      7.2435      6.4053      5.6559      4.9980      4.4304    
  3.9490      3.5473      3.2174      2.9516      2.7428      2.5853      2.4753      2.4101      2.3886      2.4101    
  2.4753      2.5853      2.7428      2.9516      3.2174      3.5473      3.9490      4.4304      4.9980      5.6559    
  6.4596      7.3548      8.3320      9.3755      10.463      11.563      12.637      13.630      14.489      15.172    
  15.645      15.887      15.887      15.645      15.172      14.489      13.630      12.637      11.563      10.463    
  9.3755      8.3320      7.3548      6.4596      5.6559      4.9477      4.3347      3.8129      3.3755      3.0145    
  2.7216      2.4888      2.3097      2.1794      2.0942      2.0522      2.0522      2.0942      2.1794      2.3097    
  2.4888      2.7216      3.0145      3.3755      3.8129      4.3347      4.9477      5.6559      6.6246      7.5811    
  8.6182      9.7157      10.845      11.970      13.047      14.025      14.848      15.471      15.859      15.990    
  15.859      15.471      14.848      14.025      13.047      11.970      10.845      9.7157      8.6182      7.5811    
  6.6246      5.7615      4.9980      4.3347      3.7682      3.2915      2.8963      2.5736      2.3149      2.1130    
  1.9618      1.8569      1.7952      1.7749      1.7952      1.8569      1.9618      2.1130      2.3149      2.5736    
  2.8963      3.2915      3.7682      4.3347      4.9980      5.7615      6.9059      7.9290      9.0289      10.180    
  11.348      12.489      13.555      14.494      15.253      15.787      16.062      16.062      15.787      15.253    
  14.494      13.555      12.489      11.348      10.180      9.0289      7.9290      6.9059      5.9767      5.1507    
  4.4304      3.8129      3.2915      2.8574      2.5012      2.2136      1.9865      1.8130      1.6877      1.6065    
  1.5666      1.5666      1.6065      1.6877      1.8130      1.9865      2.2136      2.5012      2.8574      3.2915    
  3.8129      4.4304      5.1507      5.9767      7.3116      8.4065      9.5712      10.774      11.973      13.121    
  14.163      15.045      15.718      16.139      16.283      16.139      15.718      15.045      14.163      13.121    
  11.973      10.774      9.5712      8.4065      7.3116      6.3090      5.4120      4.6258      3.9490      3.3755    
  2.8963      2.5012      2.1803      1.9245      1.7262      1.5789      1.4776      1.4183      1.3988      1.4183    
  1.4776      1.5789      1.7262      1.9245      2.1803      2.5012      2.8963      3.3755      3.9490      4.6258    
  5.4120      6.3090      7.8511      9.0216      10.251      11.501      12.723      13.864      14.867      15.677    
  16.247      16.542      16.542      16.247      15.677      14.867      13.864      12.723      11.501      10.251    
  9.0216      7.8511      6.7679      5.7907      4.9285      4.1823      3.5473      3.0145      2.5736      2.2136    
  1.9245      1.6977      1.5257      1.4024      1.3230      1.2842      1.2842      1.3230      1.4024      1.5257    
  1.6977      1.9245      2.2136      2.5736      3.0145      3.5473      4.1823      4.9285      5.7907      6.7679    
  8.5332      9.7812      11.072      12.362      13.596      14.716      15.664      16.386      16.838      16.992    
  16.838      16.386      15.664      14.716      13.596      12.362      11.072      9.7812      8.5332      7.3640    
  6.2979      5.3490      4.5219      3.8140      3.2174      2.7216      2.3149      1.9865      1.7262      1.5257    
  1.3777      1.2765      1.2176      1.1983      1.2176      1.2765      1.3777      1.5257      1.7262      1.9865    
  2.3149      2.7216      3.2174      3.8140      4.5219      5.3490      6.2979      7.3640      9.3659      10.691    
  12.039      13.359      14.592      15.677      16.554      17.171      17.489      17.489      17.171      16.554    
  15.677      14.592      13.359      12.039      10.691      9.3659      8.1071      6.9449      5.8993      4.9794    
  4.1860      3.5134      2.9516      2.4888      2.1130      1.8130      1.5789      1.4024      1.2765      1.1957    
  1.1563      1.1563      1.1957      1.2765      1.4024      1.5789      1.8130      2.1130      2.4888      2.9516    
  3.5134      4.1860      4.9794      5.8993      6.9449      8.1071      10.357      11.756      13.156      14.498    
  15.718      16.752      17.540      18.034      18.203      18.034      17.540      16.752      15.718      14.498    
  13.156      11.756      10.357      9.0066      7.7429      6.5916      5.5677      4.6760      3.9140      3.2733    
  2.7428      2.3097      1.9618      1.6877      1.4776      1.3230      1.2176      1.1563      1.1362      1.1563    
  1.2176      1.3230      1.4776      1.6877      1.9618      2.3097      2.7428      3.2733      3.9140      4.6760    
  5.5677      6.5916      7.7429      9.0066      11.516      12.989      14.434      15.787      16.974      17.928    
  18.594      18.936      18.936      18.594      17.928      16.974      15.787      14.434      12.989      11.516    
  10.073      8.7029      7.4384      6.3000      5.2977      4.4326      3.6992      3.0875      2.5853      2.1794    
  1.8569      1.6065      1.4183      1.2842      1.1983      1.1563      1.1563      1.1983      1.2842      1.4183    
  1.6065      1.8569      2.1794      2.5853      3.0875      3.6992      4.4326      5.2977      6.3000      7.4384    
  8.7029      10.073      12.859      14.398      15.859      17.162      18.242      19.047      19.542      19.710    
  19.542      19.047      18.242      17.162      15.859      14.398      12.859      11.320      9.8381      8.4525    
  7.1898      6.0651      5.0837      4.2434      3.5364      2.9514      2.4753      2.0942      1.7952      1.5666    
  1.3988      1.2842      1.2176      1.1957      1.2176      1.2842      1.3988      1.5666      1.7952      2.0942    
  2.4753      2.9514      3.5364      4.2434      5.0837      6.0651      7.1898      8.4525      9.8381      11.320    
  14.364      15.887      17.253      18.399      19.282      19.879      20.179      20.179      19.879      19.282    
  18.399      17.253      15.887      14.364      12.761      11.165      9.6493      8.2517      6.9926      5.8820    
  4.9209      4.1041      3.4220      2.8620      2.4101      2.0522      1.7749      1.5666      1.4183      1.3230    
  1.2765      1.2765      1.3230      1.4183      1.5666      1.7749      2.0522      2.4101      2.8620      3.4220    
  4.1041      4.9209      5.8820      6.9926      8.2517      9.6493      11.165      12.761      15.848      17.217    
  18.358      19.239      19.855      20.216      20.334      20.216      19.855      19.239      18.358      17.217    
  15.848      14.309      12.678      11.046      9.5022      8.0959      6.8426      5.7469      4.8060      4.0122    
  3.3540      2.8176      2.3886      2.0522      1.7952      1.6065      1.4776      1.4024      1.3777      1.4024    
  1.4776      1.6065      1.7952      2.0522      2.3886      2.8176      3.3540      4.0122      4.8060      5.7469    
  6.8426      8.0959      9.5022      11.046      12.678      14.309      17.063      18.126      18.915      19.446    
  19.762      19.905      19.905      19.762      19.446      18.915      18.126      17.063      15.746      14.230    
  12.600      10.954      9.3922      7.9816      6.7367      5.6575      4.7375      3.9664      3.3314      2.8176    
  2.4101      2.0942      1.8569      1.6877      1.5789      1.5257      1.5257      1.5789      1.6877      1.8569    
  2.0942      2.4101      2.8176      3.3314      3.9664      4.7375      5.6575      6.7367      7.9816      9.3922    
  10.954      12.600      14.230      15.746      17.748      18.359      18.698      18.843      18.882      18.886    
  18.882      18.843      18.698      18.359      17.748      16.824      15.600      14.136      12.527      10.884    
  9.3155      7.9061      6.6735      5.6129      4.7147      3.9664      3.3540      2.8620      2.4753      2.1794    
  1.9618      1.8130      1.7262      1.6977      1.7262      1.8130      1.9618      2.1794      2.4753      2.8620    
  3.3540      3.9664      4.7147      5.6129      6.6735      7.9061      9.3155      10.884      12.527      14.136    
  15.600      16.824      17.662      17.712      17.558      17.343      17.197      17.197      17.343      17.558    
  17.712      17.662      17.293      16.550      15.443      14.045      12.467      10.835      9.2701      7.8686    
  6.6525      5.6129      4.7375      4.0122      3.4220      2.9514      2.5853      2.3097      2.1130      1.9865    
  1.9245      1.9245      1.9865      2.1130      2.3097      2.5853      2.9514      3.4220      4.0122      4.7375    
  5.6129      6.6525      7.8686      9.2701      10.835      12.467      14.045      15.443      16.550      17.293    
  16.624      16.064      15.450      14.981      14.806      14.981      15.450      16.064      16.624      16.931    
  16.841      16.291      15.304      13.973      12.427      10.810      9.2549      7.8686      6.6735      5.6575    
  4.8060      4.1041      3.5364      3.0875      2.7428      2.4888      2.3149      2.2136      2.1803      2.2136    
  2.3149      2.4888      2.7428      3.0875      3.5364      4.1041      4.8060      5.6575      6.6735      7.8686    
  9.2549      10.810      12.427      13.973      15.304      16.291      16.841      16.931      14.551      13.421    
  12.466      11.920      11.920      12.466      13.421      14.551      15.582      16.273      16.461      16.092    
  15.210      13.933      12.413      10.810      9.2701      7.9061      6.7367      5.7469      4.9209      4.2434    
  3.6992      3.2733      2.9516      2.7216      2.5736      2.5012      2.5012      2.5736      2.7216      2.9516    
  3.2733      3.6992      4.2434      4.9209      5.7469      6.7367      7.9061      9.2701      10.810      12.413    
  13.933      15.210      16.092      16.461      16.273      15.582      11.502      9.9383      8.8422      8.4483    
  8.8422      9.9383      11.502      13.210      14.726      15.779      16.209      15.984      15.177      13.933    
  12.427      10.835      9.3155      7.9816      6.8426      5.8820      5.0837      4.4326      3.9140      3.5134    
  3.2174      3.0145      2.8963      2.8574      2.8963      3.0145      3.2174      3.5134      3.9140      4.4326    
  5.0837      5.8820      6.8426      7.9816      9.3155      10.835      12.427      13.933      15.177      15.984    
  16.209      15.779      14.726      13.210      7.7018      5.9279      4.9450      4.9450      5.9279      7.7018    
  9.9299      12.210      14.164      15.515      16.122      15.984      15.210      13.973      12.467      10.884    
  9.3922      8.0959      6.9926      6.0651      5.2977      4.6760      4.1860      3.8140      3.5473      3.3755    
  3.2915      3.2915      3.3755      3.5473      3.8140      4.1860      4.6760      5.2977      6.0651      6.9926    
  8.0959      9.3922      10.884      12.467      13.973      15.210      15.984      16.122      15.515      14.164    
  12.210      9.9299      3.5334      1.8293      1.2246      1.8293      3.5334      6.0332      8.9003      11.677    
  13.969      15.515      16.209      16.092      15.304      14.045      12.527      10.954      9.5022      8.2517    
  7.1898      6.3000      5.5677      4.9794      4.5219      4.1823      3.9490      3.8129      3.7682      3.8129    
  3.9490      4.1823      4.5219      4.9794      5.5677      6.3000      7.1898      8.2517      9.5022      10.954    
  12.527      14.045      15.304      16.092      16.209      15.515      13.969      11.677      8.9003      6.0332    
 -.50554     -1.8528     -1.8528     -.50554      1.9613      5.1424      8.5421      11.677      14.164      15.779    
  16.461      16.291      15.443      14.136      12.600      11.046      9.6493      8.4525      7.4384      6.5916    
  5.8993      5.3490      4.9285      4.6258      4.4304      4.3347      4.3347      4.4304      4.6258      4.9285    
  5.3490      5.8993      6.5916      7.4384      8.4525      9.6493      11.046      12.600      14.136      15.443    
  16.291      16.461      15.779      14.164      11.677      8.5421      5.1424      1.9613     -3.8827     -4.6320    
 -3.8827     -1.7555      1.4136      5.1424      8.9003      12.210      14.726      16.273      16.841      16.550    
  15.600      14.230      12.678      11.165      9.8381      8.7029      7.7429      6.9449      6.2979      5.7907    
  5.4120      5.1507      4.9980      4.9477      4.9980      5.1507      5.4120      5.7907      6.2979      6.9449    
  7.7429      8.7029      9.8381      11.165      12.678      14.230      15.600      16.550      16.841      16.273    
  14.726      12.210      8.9003      5.1424      1.4136     -1.7555     -6.1263     -6.1263     -4.5916     -1.7555    
  1.9613      6.0332      9.9299      13.210      15.582      16.931      17.293      16.824      15.746      14.309    
  12.761      11.320      10.073      9.0066      8.1071      7.3640      6.7679      6.3090      5.9767      5.7615    
  5.6559      5.6559      5.7615      5.9767      6.3090      6.7679      7.3640      8.1071      9.0066      10.073    
  11.320      12.761      14.309      15.746      16.824      17.293      16.931      15.582      13.210      9.9299    
  6.0332      1.9613     -1.7555     -4.5916     -6.1263     -4.6320     -1.8528      1.8293      5.9279      9.9383    
  13.421      16.064      17.712      18.359      18.126      17.217      15.887      14.398      12.989      11.756    
  10.691      9.7812      9.0216      8.4065      7.9290      7.5811      7.3548      7.2435      7.2435      7.3548    
  7.5811      7.9290      8.4065      9.0216      9.7812      10.691      11.756      12.989      14.398      15.887    
  17.217      18.126      18.359      17.712      16.064      13.421      9.9383      5.9279      1.8293     -1.8528    
 -4.6320     -6.1263     -4.6320     -2.5449     0.62104      4.4524      8.4719      12.218      15.314      17.517    
  18.731      19.000      18.475      17.384      15.990      14.556      13.267      12.141      11.166      10.337    
  9.6511      9.1037      8.6891      8.4002      8.2300      8.1739      8.2300      8.4002      8.6891      9.1037    
  9.6511      10.337      11.166      12.141      13.267      14.556      15.990      17.384      18.475      19.000    
  18.731      17.517      15.314      12.218      8.4719      4.4524     0.62104     -2.5449     -4.6320     -5.3605    
 -1.8528     0.62104      3.9276      7.6544      11.361      14.648      17.210      18.873      19.599      19.472    
  18.674      17.449      16.062      14.750      13.591      12.576      11.699      10.959      10.353      9.8797    
  9.5327      9.3059      9.1940      9.1940      9.3059      9.5327      9.8797      10.353      10.959      11.699    
  12.576      13.591      14.750      16.062      17.449      18.674      19.472      19.599      18.873      17.210    
  14.648      11.361      7.6544      3.9276     0.62104     -1.8528     -3.1759     -3.1759      1.8293      4.4524    