unknown system                          
   1.00000000000000     
     0.000000    2.816500    2.816500
     2.816500    0.000000    2.816500
     2.816500    2.816500    0.000000
   Ge
     2
Direct
  0.000000  0.000000  0.000000
  0.250000  0.250000  0.250000
 
   48   48   48
 -.69127425461E+01 -.61265242479E+01 -.38829258548E+01 -.50568480652E+00 0.35333100471E+01
 0.77017516179E+01 0.11502054258E+02 0.14550663934E+02 0.16623436924E+02 0.17661731889E+02
 0.17747521378E+02 0.17062952473E+02 0.15848038373E+02 0.14363370559E+02 0.12858705714E+02
 0.11516314307E+02 0.10356853026E+02 0.93658524671E+01 0.85331716517E+01 0.78510263155E+01
 0.73115679528E+01 0.69058837271E+01 0.66246510299E+01 0.64596603239E+01 0.64053218934E+01
 0.64596603616E+01 0.66246510355E+01 0.69058836565E+01 0.73115678455E+01 0.78510262456E+01
 0.85331716535E+01 0.93658525293E+01 0.10356853123E+02 0.11516314397E+02 0.12858705727E+02
 0.14363370447E+02 0.15848038189E+02 0.17062952349E+02 0.17747521392E+02 0.17661731977E+02
 0.16623436964E+02 0.14550663905E+02 0.11502054268E+02 0.77017517573E+01 0.35333102574E+01
 -.50568467563E+00 -.38829258703E+01 -.61265243190E+01 -.61265242479E+01 -.46321327123E+01
 -.18528974358E+01 0.18292005599E+01 0.59278796516E+01 0.99383221469E+01 0.13421049240E+02
 0.16064102901E+02 0.17711577872E+02 0.18358965345E+02 0.18125625403E+02 0.17217168418E+02
 0.15886633478E+02 0.14398017301E+02 0.12988472393E+02 0.11756152452E+02 0.10690424244E+02
 0.97810556889E+01 0.90215720699E+01 0.84064298132E+01 0.79289546467E+01 0.75811309751E+01
 0.73548323488E+01 0.72435001362E+01 0.72435001993E+01 0.73548324485E+01 0.75811309800E+01
 0.79289545708E+01 0.84064297617E+01 0.90215720585E+01 0.97810556501E+01 0.10690424193E+02
 0.11756152498E+02 0.12988472549E+02 0.14398017400E+02 0.15886633377E+02 0.17217168212E+02
 0.18125625333E+02 0.18358965494E+02 0.17711577999E+02 0.16064102593E+02 0.13421048295E+02
 0.99383209365E+01 0.59278791327E+01 0.18292016682E+01 -.18528947275E+01 -.46321297790E+01
 -.61265229757E+01 -.38829258548E+01 -.18528974358E+01 0.12245644809E+01 0.49450277353E+01
 0.88422554497E+01 0.12465801651E+02 0.15449728119E+02 0.17557647429E+02 0.18698142812E+02
 0.18914478316E+02 0.18357820532E+02 0.17252530896E+02 0.15858570484E+02 0.14433623711E+02
 0.13155645441E+02 0.12038678778E+02 0.11072305037E+02 0.10250913781E+02 0.95711121768E+01
 0.90288492807E+01 0.86181960926E+01 0.83319914881E+01 0.81634672863E+01 0.81078608162E+01
 0.81634673234E+01 0.83319915487E+01 0.86181961476E+01 0.90288493029E+01 0.95711121647E+01
 0.10250913750E+02 0.11072304994E+02 0.12038678734E+02 0.13155645439E+02 0.14433623788E+02
 0.15858570585E+02 0.17252530897E+02 0.18357820411E+02 0.18914478252E+02 0.18698142968E+02
 0.17557647592E+02 0.15449727746E+02 0.12465800485E+02 0.88422541313E+01 0.49450275590E+01
 0.12245662520E+01 -.18528944102E+01 -.38829235056E+01 -.45918117343E+01 -.50568480652E+00
 0.18292005599E+01 0.49450277353E+01 0.84483850119E+01 0.11920150008E+02 0.14980746574E+02
 0.17342923893E+02 0.18842659161E+02 0.19446424021E+02 0.19239100182E+02 0.18398606972E+02
 0.17162013499E+02 0.15786660607E+02 0.14497366571E+02 0.13358867213E+02 0.12361582927E+02
 0.11500394702E+02 0.10773638695E+02 0.10179857460E+02 0.97156421281E+01 0.93755045685E+01
 0.91532208232E+01 0.90435509595E+01 0.90435509353E+01 0.91532208028E+01 0.93755046156E+01
 0.97156422069E+01 0.10179857506E+02 0.10773638729E+02 0.11500394765E+02 0.12361582953E+02
 0.13358867112E+02 0.14497366416E+02 0.15786660579E+02 0.17162013607E+02 0.18398606995E+02
 0.19239100009E+02 0.19446423881E+02 0.18842659345E+02 0.17342924284E+02 0.14980746694E+02
 0.11920149593E+02 0.84483844074E+01 0.49450275803E+01 0.18292011067E+01 -.50568398233E+00
 -.17557062014E+01 -.17557065900E+01 0.35333100471E+01 0.59278796516E+01 0.88422554497E+01
 0.11920150008E+02 0.14806096056E+02 0.17197121251E+02 0.18881880154E+02 0.19761972302E+02
 0.19855059084E+02 0.19282116980E+02 0.18241660283E+02 0.16974009548E+02 0.15717586757E+02
 0.14592236637E+02 0.13595494413E+02 0.12722558336E+02 0.11972966668E+02 0.11347467199E+02
 0.10845180649E+02 0.10462666013E+02 0.10194814723E+02 0.10036530533E+02 0.99841989832E+01
 0.10036530542E+02 0.10194814708E+02 0.10462665975E+02 0.10845180653E+02 0.11347467315E+02
 0.11972966873E+02 0.12722558497E+02 0.13595494399E+02 0.14592236457E+02 0.15717586558E+02
 0.16974009466E+02 0.18241660291E+02 0.19282116918E+02 0.19855058862E+02 0.19761972051E+02
 0.18881880143E+02 0.17197121616E+02 0.14806096629E+02 0.11920150427E+02 0.88422554512E+01
 0.59278792611E+01 0.35333095261E+01 0.19611079290E+01 0.14134003454E+01 0.19611082798E+01
 0.77017516179E+01 0.99383221469E+01 0.12465801651E+02 0.14980746574E+02 0.17197121251E+02
 0.18886099707E+02 0.19905538079E+02 0.20215579652E+02 0.19879043737E+02 0.19046528879E+02
 0.17927588075E+02 0.16751673659E+02 0.15677041725E+02 0.14715807584E+02 0.13863530984E+02
 0.13120471811E+02 0.12488969591E+02 0.11970284678E+02 0.11562979710E+02 0.11263236115E+02
 0.11066064098E+02 0.10968123147E+02 0.10968123197E+02 0.11066064148E+02 0.11263236027E+02
 0.11562979549E+02 0.11970284662E+02 0.12488969820E+02 0.13120472148E+02 0.13863531214E+02
 0.14715807600E+02 0.15677041568E+02 0.16751673448E+02 0.17927587944E+02 0.19046528877E+02
 0.19879043731E+02 0.20215579414E+02 0.19905537562E+02 0.18886099190E+02 0.17197121122E+02
 0.14980746960E+02 0.12465802336E+02 0.99383228213E+01 0.77017521159E+01 0.60330239916E+01
 0.51421769662E+01 0.51421768662E+01 0.60330236946E+01 0.11502054258E+02 0.13421049240E+02
 0.15449728119E+02 0.17342923893E+02 0.18881880154E+02 0.19905538079E+02 0.20333827493E+02
 0.20179027691E+02 0.19542223202E+02 0.18593770258E+02 0.17540000415E+02 0.16553673902E+02
 0.15663847841E+02 0.14866629688E+02 0.14162661284E+02 0.13555198446E+02 0.13046968006E+02
 0.12636685209E+02 0.12318486766E+02 0.12090018126E+02 0.11951923404E+02 0.11905663839E+02
 0.11951923449E+02 0.12090018087E+02 0.12318486568E+02 0.12636684975E+02 0.13046967977E+02
 0.13555198746E+02 0.14162661771E+02 0.14866630064E+02 0.15663847904E+02 0.16553673701E+02
 0.17540000178E+02 0.18593770185E+02 0.19542223314E+02 0.20179027825E+02 0.20333827412E+02
 0.19905537606E+02 0.18881879315E+02 0.17342922998E+02 0.15449727699E+02 0.13421049760E+02
 0.11502055741E+02 0.99297281668E+01 0.89000987991E+01 0.85419480990E+01 0.89000975139E+01
 0.99297263106E+01 0.14550663934E+02 0.16064102901E+02 0.17557647429E+02 0.18842659161E+02
 0.19761972302E+02 0.20215579652E+02 0.20179027691E+02 0.19709493426E+02 0.18936044013E+02
 0.18034090766E+02 0.17170405831E+02 0.16385743725E+02 0.15677041725E+02 0.15045144705E+02
 0.14493630418E+02 0.14024438998E+02 0.13629795030E+02 0.13305258649E+02 0.13053393365E+02
 0.12880168349E+02 0.12791686764E+02 0.12791686779E+02 0.12880168334E+02 0.13053393200E+02
 0.13305258299E+02 0.13629794680E+02 0.14024438966E+02 0.14493630844E+02 0.15045145348E+02
 0.15677042157E+02 0.16385743732E+02 0.17170405561E+02 0.18034090502E+02 0.18936043922E+02
 0.19709493566E+02 0.20179028067E+02 0.20215580095E+02 0.19761972373E+02 0.18842658446E+02
 0.17557646083E+02 0.16064101788E+02 0.14550664000E+02 0.13209423114E+02 0.12209705703E+02
 0.11676696335E+02 0.11676695553E+02 0.12209703967E+02 0.13209421740E+02 0.16623436924E+02
 0.17711577872E+02 0.18698142812E+02 0.19446424021E+02 0.19855059084E+02 0.19879043737E+02
 0.19542223202E+02 0.18936044013E+02 0.18202388550E+02 0.17488960483E+02 0.16837910217E+02
 0.16247122292E+02 0.15717586757E+02 0.15252706164E+02 0.14847913125E+02 0.14489344855E+02
 0.14174539791E+02 0.13910664108E+02 0.13709515581E+02 0.13583029781E+02 0.13539826728E+02
 0.13583029869E+02 0.13709515549E+02 0.13910663758E+02 0.14174539190E+02 0.14489344375E+02
 0.14847913150E+02 0.15252706731E+02 0.15717587490E+02 0.16247122732E+02 0.16837910198E+02
 0.17488960166E+02 0.18202388177E+02 0.18936043742E+02 0.19542223183E+02 0.19879044137E+02
 0.19855059867E+02 0.19446424740E+02 0.18698142840E+02 0.17711577006E+02 0.16623435693E+02
 0.15582047960E+02 0.14725493776E+02 0.14164216092E+02 0.13969014079E+02 0.14164215816E+02
 0.14725493812E+02 0.15582048746E+02 0.17661731889E+02 0.18358965345E+02 0.18914478316E+02
 0.19239100182E+02 0.19282116980E+02 0.19046528879E+02 0.18593770258E+02 0.18034090766E+02
 0.17488960483E+02 0.16991925018E+02 0.16541567807E+02 0.16139015488E+02 0.15786660607E+02
 0.15470784402E+02 0.15171906678E+02 0.14887391240E+02 0.14627682155E+02 0.14410003398E+02
 0.14252502850E+02 0.14169744946E+02 0.14169745087E+02 0.14252503084E+02 0.14410003336E+02
 0.14627681591E+02 0.14887390397E+02 0.15171906088E+02 0.15470784486E+02 0.15786661321E+02
 0.16139016357E+02 0.16541568328E+02 0.16991925040E+02 0.17488960185E+02 0.18034090344E+02
 0.18593769759E+02 0.19046528398E+02 0.19282116852E+02 0.19239100753E+02 0.18914479450E+02
 0.18358966333E+02 0.17661731986E+02 0.16930487926E+02 0.16272315394E+02 0.15778548409E+02
 0.15514681680E+02 0.15514682114E+02 0.15778549568E+02 0.16272316802E+02 0.16930488853E+02
 0.17747521378E+02 0.18125625403E+02 0.18357820532E+02 0.18398606972E+02 0.18241660283E+02
 0.17927588075E+02 0.17540000415E+02 0.17170405831E+02 0.16837910217E+02 0.16541567807E+02
 0.16282605482E+02 0.16062206889E+02 0.15858570484E+02 0.15644846357E+02 0.15415209396E+02
 0.15181029087E+02 0.14963586282E+02 0.14786787153E+02 0.14671421681E+02 0.14631352842E+02
 0.14671422075E+02 0.14786787570E+02 0.14963586241E+02 0.15181028382E+02 0.15415208345E+02
 0.15644845638E+02 0.15858570606E+02 0.16062207750E+02 0.16282606474E+02 0.16541568380E+02
 0.16837910309E+02 0.17170405710E+02 0.17540000203E+02 0.17927587597E+02 0.18241659447E+02
 0.18398606159E+02 0.18357820387E+02 0.18125626190E+02 0.17747522609E+02 0.17293289713E+02
 0.16840474162E+02 0.16460479896E+02 0.16209118462E+02 0.16121377242E+02 0.16209119196E+02
 0.16460480723E+02 0.16840474306E+02 0.17293288912E+02 0.17062952473E+02 0.17217168418E+02
 0.17252530896E+02 0.17162013499E+02 0.16974009548E+02 0.16751673659E+02 0.16553673902E+02
 0.16385743725E+02 0.16247122292E+02 0.16139015488E+02 0.16062206889E+02 0.15990192629E+02
 0.15886633478E+02 0.15738979038E+02 0.15556233680E+02 0.15361351349E+02 0.15182668881E+02
 0.15046746136E+02 0.14973509179E+02 0.14973509483E+02 0.15046746861E+02 0.15182669528E+02
 0.15361351356E+02 0.15556232843E+02 0.15738977787E+02 0.15886632633E+02 0.15990192737E+02
 0.16062207757E+02 0.16139016418E+02 0.16247122773E+02 0.16385743853E+02 0.16553674076E+02
 0.16751673972E+02 0.16974009593E+02 0.17162012845E+02 0.17252529679E+02 0.17217167365E+02
 0.17062952285E+02 0.16824114997E+02 0.16549578603E+02 0.16290611271E+02 0.16091470889E+02
 0.15983764521E+02 0.15983764464E+02 0.16091470565E+02 0.16290610471E+02 0.16549577516E+02
 0.16824114260E+02 0.15848038373E+02 0.15886633478E+02 0.15858570484E+02 0.15786660607E+02
 0.15717586757E+02 0.15677041725E+02 0.15663847841E+02 0.15677041725E+02 0.15717586757E+02
 0.15786660607E+02 0.15858570484E+02 0.15886633478E+02 0.15848038373E+02 0.15745475518E+02
 0.15600205612E+02 0.15442713091E+02 0.15304110995E+02 0.15209965735E+02 0.15176707674E+02
 0.15209966362E+02 0.15304111964E+02 0.15442713855E+02 0.15600205602E+02 0.15745474584E+02
 0.15848037023E+02 0.15886632567E+02 0.15858570522E+02 0.15786661344E+02 0.15717587479E+02
 0.15677041972E+02 0.15663847815E+02 0.15677041972E+02 0.15717587479E+02 0.15786661344E+02
 0.15858570522E+02 0.15886632567E+02 0.15848037023E+02 0.15745474584E+02 0.15600205602E+02
 0.15442713855E+02 0.15304111964E+02 0.15209966362E+02 0.15176707674E+02 0.15209965735E+02
 0.15304110995E+02 0.15442713091E+02 0.15600205612E+02 0.15745475518E+02 0.14363370559E+02
 0.14398017301E+02 0.14433623711E+02 0.14497366571E+02 0.14592236637E+02 0.14715807584E+02
 0.14866629688E+02 0.15045144705E+02 0.15252706164E+02 0.15470784402E+02 0.15644846357E+02
 0.15738979038E+02 0.15745475518E+02 0.15679776268E+02 0.15571238555E+02 0.15453431341E+02
 0.15356483314E+02 0.15302318573E+02 0.15302318828E+02 0.15356484036E+02 0.15453432310E+02
 0.15571239297E+02 0.15679776264E+02 0.15745474637E+02 0.15738977770E+02 0.15644845507E+02
 0.15470784437E+02 0.15252706818E+02 0.15045145241E+02 0.14866629607E+02 0.14715807097E+02
 0.14592236448E+02 0.14497367172E+02 0.14433624868E+02 0.14398018227E+02 0.14363370591E+02
 0.14308332669E+02 0.14229426492E+02 0.14136205683E+02 0.14044887006E+02 0.13972512598E+02
 0.13932630186E+02 0.13932629982E+02 0.13972512225E+02 0.14044886981E+02 0.14136206333E+02
 0.14229427590E+02 0.14308333518E+02 0.12858705714E+02 0.12988472393E+02 0.13155645441E+02
 0.13358867213E+02 0.13595494413E+02 0.13863530984E+02 0.14162661284E+02 0.14493630418E+02
 0.14847913125E+02 0.15171906678E+02 0.15415209396E+02 0.15556233680E+02 0.15600205612E+02
 0.15571238555E+02 0.15502272916E+02 0.15426110091E+02 0.15369212620E+02 0.15348347437E+02
 0.15369212892E+02 0.15426110698E+02 0.15502273764E+02 0.15571239255E+02 0.15600205679E+02
 0.15556232968E+02 0.15415208334E+02 0.15171905997E+02 0.14847913253E+02 0.14493631100E+02
 0.14162661793E+02 0.13863530765E+02 0.13595493570E+02 0.13358866432E+02 0.13155645422E+02
 0.12988473274E+02 0.12858706957E+02 0.12760830928E+02 0.12677490594E+02 0.12599444517E+02
 0.12527236700E+02 0.12467105494E+02 0.12426892008E+02 0.12412725100E+02 0.12426892131E+02
 0.12467105922E+02 0.12527237447E+02 0.12599445191E+02 0.12677490628E+02 0.12760830111E+02
 0.11516314307E+02 0.11756152452E+02 0.12038678778E+02 0.12361582927E+02 0.12722558336E+02
 0.13120471811E+02 0.13555198446E+02 0.14024438998E+02 0.14489344855E+02 0.14887391240E+02
 0.15181029087E+02 0.15361351349E+02 0.15442713091E+02 0.15453431341E+02 0.15426110091E+02
 0.15390037616E+02 0.15366490758E+02 0.15366490765E+02 0.15390037759E+02 0.15426110563E+02
 0.15453432092E+02 0.15442713730E+02 0.15361351425E+02 0.15181028493E+02 0.14887390364E+02
 0.14489344311E+02 0.14024439166E+02 0.13555199190E+02 0.13120472572E+02 0.12722558508E+02
 0.12361582282E+02 0.12038677664E+02 0.11756151587E+02 0.11516314264E+02 0.11319852239E+02
 0.11164781092E+02 0.11046008093E+02 0.10954214602E+02 0.10883943545E+02 0.10835048379E+02
 0.10809683589E+02 0.10809683743E+02 0.10835048766E+02 0.10883943916E+02 0.10954214582E+02
 0.11046007460E+02 0.11164780076E+02 0.11319851471E+02 0.10356853026E+02 0.10690424244E+02
 0.11072305037E+02 0.11500394702E+02 0.11972966668E+02 0.12488969591E+02 0.13046968006E+02
 0.13629795030E+02 0.14174539791E+02 0.14627682155E+02 0.14963586282E+02 0.15182668881E+02
 0.15304110995E+02 0.15356483314E+02 0.15369212620E+02 0.15366490758E+02 0.15363818056E+02
 0.15366490619E+02 0.15369212648E+02 0.15356483736E+02 0.15304111656E+02 0.15182669358E+02
 0.14963586251E+02 0.14627681629E+02 0.14174539065E+02 0.13629794502E+02 0.13046968006E+02
 0.12488970218E+02 0.11972967652E+02 0.11500395467E+02 0.11072305044E+02 0.10690423413E+02
 0.10356851848E+02 0.10072903294E+02 0.98379683570E+01 0.96491792785E+01 0.95021044164E+01
 0.93920789882E+01 0.93154328962E+01 0.92699644786E+01 0.92548329006E+01 0.92699645953E+01
 0.93154328720E+01 0.93920785776E+01 0.95021036906E+01 0.96491786767E+01 0.98379683888E+01
 0.10072904105E+02 0.93658524671E+01 0.97810556889E+01 0.10250913781E+02 0.10773638695E+02
 0.11347467199E+02 0.11970284678E+02 0.12636685209E+02 0.13305258649E+02 0.13910664108E+02
 0.14410003398E+02 0.14786787153E+02 0.15046746136E+02 0.15209965735E+02 0.15302318573E+02
 0.15348347437E+02 0.15366490765E+02 0.15366490619E+02 0.15348347197E+02 0.15302318601E+02
 0.15209966134E+02 0.15046746652E+02 0.14786787453E+02 0.14410003347E+02 0.13910663769E+02
 0.13305258121E+02 0.12636684612E+02 0.11970284244E+02 0.11347467249E+02 0.10773639386E+02
 0.10250914853E+02 0.97810565403E+01 0.93658525655E+01 0.90065183993E+01 0.87027856199E+01
 0.84524202309E+01 0.82515768927E+01 0.80958530862E+01 0.79814830107E+01 0.79060564268E+01
 0.78684903420E+01 0.78684902902E+01 0.79060562162E+01 0.79814826173E+01 0.80958527287E+01
 0.82515769603E+01 0.84524209141E+01 0.87027866267E+01 0.90065190980E+01 0.85331716517E+01
 0.90215720699E+01 0.95711121768E+01 0.10179857460E+02 0.10845180649E+02 0.11562979710E+02
 0.12318486766E+02 0.13053393365E+02 0.13709515581E+02 0.14252502850E+02 0.14671421681E+02
 0.14973509179E+02 0.15176707674E+02 0.15302318828E+02 0.15369212892E+02 0.15390037759E+02
 0.15369212648E+02 0.15302318601E+02 0.15176707722E+02 0.14973509513E+02 0.14671422076E+02
 0.14252503097E+02 0.13709515655E+02 0.13053393333E+02 0.12318486575E+02 0.11562979199E+02
 0.10845179839E+02 0.10179856758E+02 0.95711121399E+01 0.90215728847E+01 0.85331728709E+01
 0.81070189826E+01 0.77427915072E+01 0.74383183096E+01 0.71897828247E+01 0.69925981611E+01
 0.68425567153E+01 0.67366939306E+01 0.66734883751E+01 0.66524442162E+01 0.66734882286E+01
 0.67366937568E+01 0.68425567378E+01 0.69925985740E+01 0.71897835552E+01 0.74383189206E+01
 0.77427914601E+01 0.81070181197E+01 0.78510263155E+01 0.84064298132E+01 0.90288492807E+01
 0.97156421281E+01 0.10462666013E+02 0.11263236115E+02 0.12090018126E+02 0.12880168349E+02
 0.13583029781E+02 0.14169744946E+02 0.14631352842E+02 0.14973509483E+02 0.15209966362E+02
 0.15356484036E+02 0.15426110698E+02 0.15426110563E+02 0.15356483736E+02 0.15209966134E+02
 0.14973509513E+02 0.14631353097E+02 0.14169745219E+02 0.13583029934E+02 0.12880168484E+02
 0.12090018418E+02 0.11263236476E+02 0.10462666034E+02 0.97156414856E+01 0.90288481784E+01
 0.84064289270E+01 0.78510262390E+01 0.73639602199E+01 0.69449059168E+01 0.65915963444E+01
 0.62999988534E+01 0.60650897720E+01 0.58819719356E+01 0.57468556804E+01 0.56574861778E+01
 0.56129176459E+01 0.56129176270E+01 0.56574861954E+01 0.57468558711E+01 0.58819723116E+01
 0.60650901068E+01 0.62999987857E+01 0.65915956818E+01 0.69449049048E+01 0.73639594788E+01
 0.73115679528E+01 0.79289546467E+01 0.86181960926E+01 0.93755045685E+01 0.10194814723E+02
 0.11066064098E+02 0.11951923404E+02 0.12791686764E+02 0.13539826728E+02 0.14169745087E+02
 0.14671422075E+02 0.15046746861E+02 0.15304111964E+02 0.15453432310E+02 0.15502273764E+02
 0.15453432092E+02 0.15304111656E+02 0.15046746652E+02 0.14671422076E+02 0.14169745219E+02
 0.13539826788E+02 0.12791686680E+02 0.11951923397E+02 0.11066064495E+02 0.10194815535E+02
 0.93755053062E+01 0.86181961170E+01 0.79289537686E+01 0.73115666747E+01 0.67679254916E+01
 0.62979149671E+01 0.58992531251E+01 0.55676887274E+01 0.52977238192E+01 0.50837032628E+01
 0.49208794620E+01 0.48060434795E+01 0.47375292244E+01 0.47147307700E+01 0.47375292627E+01
 0.48060435936E+01 0.49208796089E+01 0.50837032468E+01 0.52977234246E+01 0.55676879955E+01
 0.58992524868E+01 0.62979149880E+01 0.67679263670E+01 0.69058837271E+01 0.75811309751E+01
 0.83319914881E+01 0.91532208232E+01 0.10036530533E+02 0.10968123147E+02 0.11905663839E+02
 0.12791686779E+02 0.13583029869E+02 0.14252503084E+02 0.14786787570E+02 0.15182669528E+02
 0.15442713855E+02 0.15571239297E+02 0.15571239255E+02 0.15442713730E+02 0.15182669358E+02
 0.14786787453E+02 0.14252503097E+02 0.13583029934E+02 0.12791686680E+02 0.11905663459E+02
 0.10968122710E+02 0.10036530515E+02 0.91532215110E+01 0.83319926045E+01 0.75811318105E+01
 0.69058837155E+01 0.63089881995E+01 0.57907519538E+01 0.53490205175E+01 0.49794237556E+01
 0.46760753677E+01 0.44326326087E+01 0.42434041523E+01 0.41041363002E+01 0.40122416267E+01
 0.39664975018E+01 0.39664975070E+01 0.40122416295E+01 0.41041362495E+01 0.42434039660E+01
 0.44326322690E+01 0.46760750453E+01 0.49794237858E+01 0.53490211322E+01 0.57907529672E+01
 0.63089890062E+01 0.66246510299E+01 0.73548323488E+01 0.81634672863E+01 0.90435509595E+01
 0.99841989832E+01 0.10968123197E+02 0.11951923449E+02 0.12880168334E+02 0.13709515549E+02
 0.14410003336E+02 0.14963586241E+02 0.15361351356E+02 0.15600205602E+02 0.15679776264E+02
 0.15600205679E+02 0.15361351425E+02 0.14963586251E+02 0.14410003347E+02 0.13709515655E+02
 0.12880168484E+02 0.11951923397E+02 0.10968122710E+02 0.99841981566E+01 0.90435502879E+01
 0.81634673259E+01 0.73548332215E+01 0.66246522490E+01 0.59767470663E+01 0.54120153418E+01
 0.49285506840E+01 0.45219650052E+01 0.41860937728E+01 0.39140306095E+01 0.36992439166E+01
 0.35364586604E+01 0.34220671383E+01 0.33540274484E+01 0.33314276099E+01 0.33540274512E+01
 0.34220670939E+01 0.35364585281E+01 0.36992437609E+01 0.39140306326E+01 0.41860941749E+01
 0.45219657287E+01 0.49285513066E+01 0.54120153298E+01 0.59767462416E+01 0.64596603239E+01
 0.72435001362E+01 0.81078608162E+01 0.90435509353E+01 0.10036530542E+02 0.11066064148E+02
 0.12090018087E+02 0.13053393200E+02 0.13910663758E+02 0.14627681591E+02 0.15181028382E+02
 0.15556232843E+02 0.15745474584E+02 0.15745474637E+02 0.15556232968E+02 0.15181028493E+02
 0.14627681629E+02 0.13910663769E+02 0.13053393333E+02 0.12090018418E+02 0.11066064495E+02
 0.10036530515E+02 0.90435502879E+01 0.81078597800E+01 0.72434993478E+01 0.64596603282E+01
 0.57615354440E+01 0.51507857406E+01 0.46258508201E+01 0.41823937012E+01 0.38140524315E+01
 0.35134691529E+01 0.32733985657E+01 0.30876329896E+01 0.29515352151E+01 0.28621128249E+01
 0.28177375765E+01 0.28177375870E+01 0.28621128366E+01 0.29515352077E+01 0.30876330136E+01
 0.32733987337E+01 0.35134695038E+01 0.38140527792E+01 0.41823936819E+01 0.46258502003E+01
 0.51507847327E+01 0.57615346615E+01 0.64053218934E+01 0.72435001993E+01 0.81634673234E+01
 0.91532208028E+01 0.10194814708E+02 0.11263236027E+02 0.12318486568E+02 0.13305258299E+02
 0.14174539190E+02 0.14887390397E+02 0.15415208345E+02 0.15738977787E+02 0.15848037023E+02
 0.15738977770E+02 0.15415208334E+02 0.14887390364E+02 0.14174539065E+02 0.13305258121E+02
 0.12318486575E+02 0.11263236476E+02 0.10194815535E+02 0.91532215110E+01 0.81634673259E+01
 0.72434993478E+01 0.64053206764E+01 0.56559326383E+01 0.49980173493E+01 0.44304841612E+01
 0.39491001083E+01 0.35473475210E+01 0.32174876408E+01 0.29516672298E+01 0.27428538136E+01
 0.25854318317E+01 0.24754026343E+01 0.24102562598E+01 0.23886749383E+01 0.24102562618E+01
 0.24754026399E+01 0.25854318756E+01 0.27428539396E+01 0.29516673881E+01 0.32174876321E+01
 0.35473471340E+01 0.39490993898E+01 0.44304835341E+01 0.49980173567E+01 0.56559334639E+01
 0.64596603616E+01 0.73548324485E+01 0.83319915487E+01 0.93755046156E+01 0.10462665975E+02
 0.11562979549E+02 0.12636684975E+02 0.13629794680E+02 0.14489344375E+02 0.15171906088E+02
 0.15644845638E+02 0.15886632633E+02 0.15886632567E+02 0.15644845507E+02 0.15171905997E+02
 0.14489344311E+02 0.13629794502E+02 0.12636684612E+02 0.11562979199E+02 0.10462666034E+02
 0.93755053062E+01 0.83319926045E+01 0.73548332215E+01 0.64596603282E+01 0.56559326383E+01
 0.49477803282E+01 0.43348068211E+01 0.38129677755E+01 0.33756112560E+01 0.30146409894E+01
 0.27216561637E+01 0.24888912164E+01 0.23098322408E+01 0.21794845036E+01 0.20943593261E+01
 0.20523038418E+01 0.20523038350E+01 0.20943593123E+01 0.21794845009E+01 0.23098322541E+01
 0.24888911927E+01 0.27216559983E+01 0.30146406464E+01 0.33756109131E+01 0.38129677872E+01
 0.43348074243E+01 0.49477813277E+01 0.56559334352E+01 0.66246510355E+01 0.75811309800E+01
 0.86181961476E+01 0.97156422069E+01 0.10845180653E+02 0.11970284662E+02 0.13046967977E+02
 0.14024438966E+02 0.14847913150E+02 0.15470784486E+02 0.15858570606E+02 0.15990192737E+02
 0.15858570522E+02 0.15470784437E+02 0.14847913253E+02 0.14024439166E+02 0.13046968006E+02
 0.11970284244E+02 0.10845179839E+02 0.97156414856E+01 0.86181961170E+01 0.75811318105E+01
 0.66246522490E+01 0.57615354440E+01 0.49980173493E+01 0.43348068211E+01 0.37682427353E+01
 0.32915901746E+01 0.28963883840E+01 0.25736919748E+01 0.23150464667E+01 0.21131116224E+01
 0.19619485794E+01 0.18570669088E+01 0.17953539388E+01 0.17749835404E+01 0.17953539280E+01
 0.18570669029E+01 0.19619485772E+01 0.21131115801E+01 0.23150463356E+01 0.25736918054E+01
 0.28963883791E+01 0.32915905530E+01 0.37682434569E+01 0.43348074586E+01 0.49980173472E+01
 0.57615346160E+01 0.69058836565E+01 0.79289545708E+01 0.90288493029E+01 0.10179857506E+02
 0.11347467315E+02 0.12488969820E+02 0.13555198746E+02 0.14493630844E+02 0.15252706731E+02
 0.15786661321E+02 0.16062207750E+02 0.16062207757E+02 0.15786661344E+02 0.15252706818E+02
 0.14493631100E+02 0.13555199190E+02 0.12488970218E+02 0.11347467249E+02 0.10179856758E+02
 0.90288481784E+01 0.79289537686E+01 0.69058837155E+01 0.59767470663E+01 0.51507857406E+01
 0.44304841612E+01 0.38129677755E+01 0.32915901746E+01 0.28575460397E+01 0.25013062400E+01
 0.22137022533E+01 0.19865878310E+01 0.18131293888E+01 0.16878633762E+01 0.16066725834E+01
 0.15667799882E+01 0.15667799846E+01 0.16066725821E+01 0.16878633874E+01 0.18131293991E+01
 0.19865878230E+01 0.22137022650E+01 0.25013063766E+01 0.28575463590E+01 0.32915905232E+01
 0.38129677963E+01 0.44304835828E+01 0.51507847259E+01 0.59767462249E+01 0.73115678455E+01
 0.84064297617E+01 0.95711121647E+01 0.10773638729E+02 0.11972966873E+02 0.13120472148E+02
 0.14162661771E+02 0.15045145348E+02 0.15717587490E+02 0.16139016357E+02 0.16282606474E+02
 0.16139016418E+02 0.15717587479E+02 0.15045145241E+02 0.14162661793E+02 0.13120472572E+02
 0.11972967652E+02 0.10773639386E+02 0.95711121399E+01 0.84064289270E+01 0.73115666747E+01
 0.63089881995E+01 0.54120153418E+01 0.46258508201E+01 0.39491001083E+01 0.33756112560E+01
 0.28963883840E+01 0.25013062400E+01 0.21804046834E+01 0.19246700246E+01 0.17263644642E+01
 0.15790777646E+01 0.14776994968E+01 0.14184451820E+01 0.13989611237E+01 0.14184451863E+01
 0.14776995062E+01 0.15790777713E+01 0.17263644702E+01 0.19246700713E+01 0.21804048182E+01
 0.25013064087E+01 0.28963883815E+01 0.33756108726E+01 0.39490993967E+01 0.46258501985E+01
 0.54120153360E+01 0.63089889849E+01 0.78510262456E+01 0.90215720585E+01 0.10250913750E+02
 0.11500394765E+02 0.12722558497E+02 0.13863531214E+02 0.14866630064E+02 0.15677042157E+02
 0.16247122732E+02 0.16541568328E+02 0.16541568380E+02 0.16247122773E+02 0.15677041972E+02
 0.14866629607E+02 0.13863530765E+02 0.12722558508E+02 0.11500395467E+02 0.10250914853E+02
 0.90215728847E+01 0.78510262390E+01 0.67679254916E+01 0.57907519538E+01 0.49285506840E+01
 0.41823937012E+01 0.35473475210E+01 0.30146409894E+01 0.25736919748E+01 0.22137022533E+01
 0.19246700246E+01 0.16978506294E+01 0.15258453669E+01 0.14025555527E+01 0.13231882743E+01
 0.12843794869E+01 0.12843794922E+01 0.13231882835E+01 0.14025555498E+01 0.15258453459E+01
 0.16978506165E+01 0.19246700501E+01 0.22137022719E+01 0.25736918511E+01 0.30146406483E+01
 0.35473471415E+01 0.41823936819E+01 0.49285512962E+01 0.57907529872E+01 0.67679263034E+01
 0.85331716535E+01 0.97810556501E+01 0.11072304994E+02 0.12361582953E+02 0.13595494399E+02
 0.14715807600E+02 0.15663847904E+02 0.16385743732E+02 0.16837910198E+02 0.16991925040E+02
 0.16837910309E+02 0.16385743853E+02 0.15663847815E+02 0.14715807097E+02 0.13595493570E+02
 0.12361582282E+02 0.11072305044E+02 0.97810565403E+01 0.85331728709E+01 0.73639602199E+01
 0.62979149671E+01 0.53490205175E+01 0.45219650052E+01 0.38140524315E+01 0.32174876408E+01
 0.27216561637E+01 0.23150464667E+01 0.19865878310E+01 0.17263644642E+01 0.15258453669E+01
 0.13778707952E+01 0.12766255311E+01 0.12177252905E+01 0.11984077404E+01 0.12177252987E+01
 0.12766255305E+01 0.13778707802E+01 0.15258453540E+01 0.17263644585E+01 0.19865877897E+01
 0.23150463361E+01 0.27216559890E+01 0.32174876233E+01 0.38140527953E+01 0.45219657256E+01
 0.53490211837E+01 0.62979150192E+01 0.73639594371E+01 0.93658525293E+01 0.10690424193E+02
 0.12038678734E+02 0.13358867112E+02 0.14592236457E+02 0.15677041568E+02 0.16553673701E+02
 0.17170405561E+02 0.17488960166E+02 0.17488960185E+02 0.17170405710E+02 0.16553674076E+02
 0.15677041972E+02 0.14592236448E+02 0.13358866432E+02 0.12038677664E+02 0.10690423413E+02
 0.93658525655E+01 0.81070189826E+01 0.69449059168E+01 0.58992531251E+01 0.49794237556E+01
 0.41860937728E+01 0.35134691529E+01 0.29516672298E+01 0.24888912164E+01 0.21131116224E+01
 0.18131293888E+01 0.15790777646E+01 0.14025555527E+01 0.12766255311E+01 0.11958537682E+01
 0.11564488060E+01 0.11564488105E+01 0.11958537741E+01 0.12766255323E+01 0.14025555605E+01
 0.15790777831E+01 0.18131293882E+01 0.21131115781E+01 0.24888911866E+01 0.29516673488E+01
 0.35134694795E+01 0.41860941287E+01 0.49794237746E+01 0.58992525583E+01 0.69449049448E+01
 0.81070181937E+01 0.10356853123E+02 0.11756152498E+02 0.13155645439E+02 0.14497366416E+02
 0.15717586558E+02 0.16751673448E+02 0.17540000178E+02 0.18034090502E+02 0.18202388177E+02
 0.18034090344E+02 0.17540000203E+02 0.16751673972E+02 0.15717587479E+02 0.14497367172E+02
 0.13155645422E+02 0.11756151587E+02 0.10356851848E+02 0.90065183993E+01 0.77427915072E+01
 0.65915963444E+01 0.55676887274E+01 0.46760753677E+01 0.39140306095E+01 0.32733985657E+01
 0.27428538136E+01 0.23098322408E+01 0.19619485794E+01 0.16878633762E+01 0.14776994968E+01
 0.13231882743E+01 0.12177252905E+01 0.11564488060E+01 0.11363617140E+01 0.11564488037E+01
 0.12177252930E+01 0.13231882898E+01 0.14776995200E+01 0.16878633868E+01 0.19619485755E+01
 0.23098322730E+01 0.27428539428E+01 0.32733987417E+01 0.39140306131E+01 0.46760749656E+01
 0.55676879656E+01 0.65915956706E+01 0.77427914961E+01 0.90065192493E+01 0.11516314397E+02
 0.12988472549E+02 0.14433623788E+02 0.15786660579E+02 0.16974009466E+02 0.17927587944E+02
 0.18593770185E+02 0.18936043922E+02 0.18936043742E+02 0.18593769759E+02 0.17927587597E+02
 0.16974009593E+02 0.15786661344E+02 0.14433624868E+02 0.12988473274E+02 0.11516314264E+02
 0.10072903294E+02 0.87027856199E+01 0.74383183096E+01 0.62999988534E+01 0.52977238192E+01
 0.44326326087E+01 0.36992439166E+01 0.30876329896E+01 0.25854318317E+01 0.21794845036E+01
 0.18570669088E+01 0.16066725834E+01 0.14184451820E+01 0.12843794869E+01 0.11984077404E+01
 0.11564488105E+01 0.11564488037E+01 0.11984077281E+01 0.12843794844E+01 0.14184451918E+01
 0.16066725888E+01 0.18570668984E+01 0.21794845008E+01 0.25854318693E+01 0.30876330289E+01
 0.36992438226E+01 0.44326322846E+01 0.52977234090E+01 0.62999987479E+01 0.74383188297E+01