   2   2   0   0
  0.2234237E+02  0.3983133E-09  0.3983133E-09  0.3983133E-09  0.5000000E-15
  1.000000000000000E-004
  CAR 
 unknown system                          
     92.20790039    -15.49745679  301      3.97926197      1.00000000
    -15.497  0.0000E+00  0.0000E+00  0.0000E+00  0.0000E+00
    -15.138  0.0000E+00  0.0000E+00  0.0000E+00  0.0000E+00
    -14.779  0.0000E+00  0.0000E+00  0.0000E+00  0.0000E+00
    -14.420  0.0000E+00  0.0000E+00  0.0000E+00  0.0000E+00
    -14.061  0.0000E+00  0.0000E+00  0.0000E+00  0.0000E+00
    -13.702  0.0000E+00  0.0000E+00  0.0000E+00  0.0000E+00
    -13.343  0.0000E+00  0.0000E+00  0.0000E+00  0.0000E+00
    -12.984  0.0000E+00  0.0000E+00  0.0000E+00  0.0000E+00
    -12.625  0.0000E+00  0.0000E+00  0.0000E+00  0.0000E+00
    -12.266  0.0000E+00  0.0000E+00  0.0000E+00  0.0000E+00
    -11.907  0.0000E+00  0.0000E+00  0.0000E+00  0.0000E+00
    -11.548  0.0000E+00  0.0000E+00  0.0000E+00  0.0000E+00
    -11.189  0.0000E+00  0.0000E+00  0.0000E+00  0.0000E+00
    -10.830  0.2249E-11  0.2249E-11  0.8073E-12  0.8073E-12
    -10.471  0.4352E-01  0.4352E-01  0.1562E-01  0.1562E-01
    -10.112  0.0000E+00  0.0000E+00  0.1562E-01  0.1562E-01
     -9.753  0.2355E+00  0.2355E+00  0.1002E+00  0.1002E+00
     -9.394  0.3690E+00  0.3690E+00  0.2327E+00  0.2327E+00
     -9.035  0.0000E+00  0.0000E+00  0.2344E+00  0.2344E+00
     -8.676  0.7419E-08  0.7419E-08  0.2344E+00  0.2344E+00
     -8.317  0.5254E+00  0.5254E+00  0.4230E+00  0.4230E+00
     -7.958  0.1709E+00  0.1709E+00  0.4844E+00  0.4844E+00
     -7.599  0.1045E+01  0.1045E+01  0.8594E+00  0.8594E+00
     -7.240  0.0000E+00  0.0000E+00  0.8594E+00  0.8594E+00
     -6.881  0.0000E+00  0.0000E+00  0.8594E+00  0.8594E+00
     -6.522  0.0000E+00  0.0000E+00  0.8594E+00  0.8594E+00
     -6.163  0.2494E+00  0.2494E+00  0.9489E+00  0.9489E+00
     -5.804  0.5095E+00  0.5095E+00  0.1141E+01  0.1141E+01
     -5.445  0.0000E+00  0.0000E+00  0.1141E+01  0.1141E+01
     -5.086  0.4542E-15  0.4542E-15  0.1141E+01  0.1141E+01
     -4.727  0.1724E+00  0.1724E+00  0.1203E+01  0.1203E+01
     -4.368  0.1044E+01  0.1044E+01  0.1578E+01  0.1578E+01
     -4.009  0.0000E+00  0.0000E+00  0.1578E+01  0.1578E+01
     -3.650  0.1522E-03  0.1522E-03  0.1578E+01  0.1578E+01
     -3.291  0.5221E+00  0.5221E+00  0.1766E+01  0.1766E+01
     -2.932  0.0000E+00  0.0000E+00  0.1766E+01  0.1766E+01
     -2.573  0.0000E+00  0.0000E+00  0.1766E+01  0.1766E+01
     -2.214  0.0000E+00  0.0000E+00  0.1766E+01  0.1766E+01
     -1.855  0.0000E+00  0.0000E+00  0.1766E+01  0.1766E+01
     -1.496  0.1711E+00  0.1711E+00  0.1827E+01  0.1827E+01
     -1.137  0.4382E+00  0.4382E+00  0.1984E+01  0.1984E+01
     -0.778  0.1509E+00  0.1509E+00  0.2039E+01  0.2039E+01
     -0.419  0.1936E+01  0.1936E+01  0.2734E+01  0.2734E+01
     -0.060  0.8056E-08  0.8057E-08  0.2734E+01  0.2734E+01
      0.299  0.2611E+00  0.2611E+00  0.2828E+01  0.2828E+01
      0.658  0.4649E-10  0.4649E-10  0.2828E+01  0.2828E+01
      1.017  0.1044E+01  0.1044E+01  0.3203E+01  0.3203E+01
      1.376  0.5114E+00  0.5114E+00  0.3387E+01  0.3387E+01
      1.735  0.3007E-05  0.3007E-05  0.3391E+01  0.3391E+01
      2.094  0.8699E+00  0.8699E+00  0.3703E+01  0.3703E+01
      2.453  0.1182E-03  0.1181E-03  0.3703E+01  0.3703E+01
      2.812  0.6962E+00  0.6962E+00  0.3953E+01  0.3953E+01
      3.171  0.0000E+00  0.0000E+00  0.3953E+01  0.3953E+01
      3.530  0.6272E-01  0.6272E-01  0.3976E+01  0.3976E+01
      3.890  0.6784E-01  0.6785E-01  0.4000E+01  0.4000E+01
      4.249  0.1420E-10  0.1421E-10  0.4000E+01  0.4000E+01
      4.608  0.1763E+00  0.1763E+00  0.4063E+01  0.4063E+01
      4.967  0.3463E+00  0.3463E+00  0.4188E+01  0.4188E+01
      5.326  0.5654E+00  0.5654E+00  0.4391E+01  0.4391E+01
      5.685  0.1044E+01  0.1044E+01  0.4765E+01  0.4765E+01
      6.044  0.9460E-10  0.9466E-10  0.4766E+01  0.4766E+01
      6.403  0.5222E+00  0.5222E+00  0.4953E+01  0.4953E+01
      6.762  0.3913E-01  0.3914E-01  0.4967E+01  0.4967E+01
      7.121  0.3154E+00  0.3154E+00  0.5080E+01  0.5080E+01
      7.480  0.3715E-01  0.3714E-01  0.5094E+01  0.5094E+01
      7.839  0.3903E-02  0.3905E-02  0.5095E+01  0.5095E+01
      8.198  0.1041E+01  0.1041E+01  0.5469E+01  0.5469E+01
      8.557  0.6515E-03  0.6516E-03  0.5469E+01  0.5469E+01
      8.916  0.1631E+01  0.1631E+01  0.6055E+01  0.6055E+01
      9.275  0.9430E+00  0.9430E+00  0.6396E+01  0.6396E+01
      9.634  0.5221E+00  0.5221E+00  0.6594E+01  0.6594E+01
      9.993  0.1567E+01  0.1567E+01  0.7156E+01  0.7156E+01
     10.352  0.7295E+00  0.7295E+00  0.7418E+01  0.7418E+01
     10.711  0.1009E+01  0.1009E+01  0.7780E+01  0.7780E+01
     11.070  0.2198E+00  0.2197E+00  0.7859E+01  0.7859E+01
     11.429  0.4609E-02  0.4606E-02  0.7861E+01  0.7861E+01
     11.788  0.4350E+00  0.4351E+00  0.8017E+01  0.8017E+01
     12.147  0.5178E+00  0.5178E+00  0.8203E+01  0.8203E+01
     12.506  0.3333E+00  0.3333E+00  0.8323E+01  0.8323E+01
     12.865  0.6862E+00  0.6862E+00  0.8578E+01  0.8578E+01
     13.224  0.0000E+00  0.0000E+00  0.8578E+01  0.8578E+01
     13.583  0.2370E-03  0.2371E-03  0.8578E+01  0.8578E+01
     13.942  0.8681E-01  0.8681E-01  0.8609E+01  0.8609E+01
     14.301  0.5223E+00  0.5223E+00  0.8797E+01  0.8797E+01
     14.660  0.8318E+00  0.8317E+00  0.9095E+01  0.9095E+01
     15.019  0.9961E+00  0.9962E+00  0.9453E+01  0.9453E+01
     15.378  0.3046E+00  0.3046E+00  0.9562E+01  0.9562E+01
     15.737  0.6040E+00  0.6040E+00  0.9779E+01  0.9779E+01
     16.096  0.1659E+01  0.1659E+01  0.1038E+02  0.1038E+02
     16.455  0.1775E+00  0.1775E+00  0.1044E+02  0.1044E+02
     16.814  0.2173E+01  0.2173E+01  0.1122E+02  0.1122E+02
     17.173  0.1767E+01  0.1767E+01  0.1185E+02  0.1185E+02
     17.532  0.5263E+00  0.5263E+00  0.1206E+02  0.1206E+02
     17.891  0.1563E+01  0.1563E+01  0.1262E+02  0.1262E+02
     18.250  0.5321E+00  0.5321E+00  0.1282E+02  0.1282E+02
     18.609  0.5558E+00  0.5558E+00  0.1302E+02  0.1302E+02
     18.968  0.0000E+00  0.0000E+00  0.1302E+02  0.1302E+02
     19.327  0.1132E-04  0.1132E-04  0.1302E+02  0.1302E+02
     19.686  0.6963E+00  0.6963E+00  0.1327E+02  0.1327E+02
     20.045  0.0000E+00  0.0000E+00  0.1327E+02  0.1327E+02
     20.404  0.0000E+00  0.0000E+00  0.1327E+02  0.1327E+02
     20.763  0.1322E-04  0.1321E-04  0.1327E+02  0.1327E+02
     21.122  0.1045E+01  0.1045E+01  0.1364E+02  0.1364E+02
     21.481  0.1044E+01  0.1044E+01  0.1402E+02  0.1402E+02
     21.840  0.2133E+00  0.2134E+00  0.1409E+02  0.1409E+02
     22.199  0.3600E+00  0.3600E+00  0.1422E+02  0.1422E+02
     22.558  0.1887E+01  0.1887E+01  0.1490E+02  0.1490E+02
     22.917  0.1195E+01  0.1195E+01  0.1533E+02  0.1533E+02
     23.276  0.2283E+00  0.2284E+00  0.1541E+02  0.1541E+02
     23.635  0.1985E+01  0.1985E+01  0.1612E+02  0.1612E+02
     23.995  0.1436E+01  0.1436E+01  0.1664E+02  0.1664E+02
     24.354  0.2096E+01  0.2096E+01  0.1740E+02  0.1740E+02
     24.713  0.2097E+01  0.2097E+01  0.1815E+02  0.1815E+02
     25.072  0.1478E+00  0.1478E+00  0.1820E+02  0.1820E+02
     25.431  0.5443E+00  0.5443E+00  0.1840E+02  0.1840E+02
     25.790  0.7611E+00  0.7611E+00  0.1867E+02  0.1867E+02
     26.149  0.4026E-01  0.4026E-01  0.1869E+02  0.1869E+02
     26.508  0.1428E+01  0.1428E+01  0.1920E+02  0.1920E+02
     26.867  0.7951E+00  0.7951E+00  0.1948E+02  0.1948E+02
     27.226  0.0000E+00  0.0000E+00  0.1948E+02  0.1948E+02
     27.585  0.9438E-07  0.9419E-07  0.1948E+02  0.1948E+02
     27.944  0.6366E+00  0.6366E+00  0.1971E+02  0.1971E+02
     28.303  0.4079E+00  0.4079E+00  0.1986E+02  0.1986E+02
     28.662  0.1564E+01  0.1564E+01  0.2042E+02  0.2042E+02
     29.021  0.8417E-01  0.8420E-01  0.2045E+02  0.2045E+02
     29.380  0.1091E+01  0.1091E+01  0.2084E+02  0.2084E+02
     29.739  0.7204E+00  0.7204E+00  0.2110E+02  0.2110E+02
     30.098  0.1059E+01  0.1059E+01  0.2148E+02  0.2148E+02
     30.457  0.1612E+01  0.1612E+01  0.2206E+02  0.2206E+02
     30.816  0.1694E+01  0.1694E+01  0.2269E+02  0.2269E+02
     31.175  0.1780E+00  0.1780E+00  0.2277E+02  0.2277E+02
     31.534  0.2103E+01  0.2103E+01  0.2352E+02  0.2352E+02
     31.893  0.1502E+01  0.1502E+01  0.2406E+02  0.2406E+02
     32.252  0.3956E+00  0.3956E+00  0.2420E+02  0.2420E+02
     32.611  0.2331E+01  0.2331E+01  0.2504E+02  0.2504E+02
     32.970  0.9047E+00  0.9047E+00  0.2539E+02  0.2539E+02
     33.329  0.2229E+01  0.2229E+01  0.2619E+02  0.2619E+02
     33.688  0.2610E+00  0.2610E+00  0.2628E+02  0.2628E+02
     34.047  0.6089E+00  0.6089E+00  0.2650E+02  0.2650E+02
     34.406  0.1672E+01  0.1672E+01  0.2710E+02  0.2710E+02
     34.765  0.6777E+00  0.6777E+00  0.2734E+02  0.2734E+02
     35.124  0.6963E+00  0.6963E+00  0.2759E+02  0.2759E+02
     35.483  0.1591E-01  0.1590E-01  0.2760E+02  0.2760E+02
     35.842  0.1029E+01  0.1029E+01  0.2797E+02  0.2797E+02
     36.201  0.3463E+00  0.3463E+00  0.2809E+02  0.2809E+02
     36.560  0.3423E+00  0.3423E+00  0.2822E+02  0.2822E+02
     36.919  0.2442E+00  0.2442E+00  0.2831E+02  0.2831E+02
     37.278  0.4109E+00  0.4108E+00  0.2846E+02  0.2846E+02
     37.637  0.1570E+01  0.1570E+01  0.2903E+02  0.2903E+02
     37.996  0.9667E+00  0.9667E+00  0.2938E+02  0.2938E+02
     38.355  0.2425E+01  0.2425E+01  0.3025E+02  0.3025E+02
     38.714  0.3281E+00  0.3281E+00  0.3037E+02  0.3037E+02
     39.073  0.1279E+01  0.1279E+01  0.3083E+02  0.3083E+02
     39.432  0.1439E+01  0.1439E+01  0.3134E+02  0.3134E+02
     39.791  0.1577E+01  0.1577E+01  0.3191E+02  0.3191E+02
     40.150  0.1077E+01  0.1077E+01  0.3231E+02  0.3231E+02
     40.509  0.2179E+01  0.2179E+01  0.3310E+02  0.3310E+02
     40.868  0.3071E+01  0.3071E+01  0.3420E+02  0.3420E+02
     41.227  0.1811E+01  0.1811E+01  0.3486E+02  0.3486E+02
     41.586  0.9863E+00  0.9863E+00  0.3522E+02  0.3522E+02
     41.945  0.0000E+00  0.0000E+00  0.3522E+02  0.3522E+02
     42.304  0.1826E-02  0.1827E-02  0.3522E+02  0.3522E+02
     42.663  0.5204E+00  0.5204E+00  0.3541E+02  0.3541E+02
     43.022  0.3527E+00  0.3527E+00  0.3553E+02  0.3553E+02
     43.381  0.7951E+00  0.7951E+00  0.3582E+02  0.3582E+02
     43.740  0.1731E+01  0.1731E+01  0.3644E+02  0.3644E+02
     44.100  0.1386E+01  0.1386E+01  0.3694E+02  0.3694E+02
     44.459  0.3902E-13  0.3900E-13  0.3694E+02  0.3694E+02
     44.818  0.3475E+00  0.3475E+00  0.3706E+02  0.3706E+02
     45.177  0.5399E+00  0.5399E+00  0.3726E+02  0.3726E+02
     45.536  0.1192E+01  0.1192E+01  0.3769E+02  0.3769E+02
     45.895  0.1143E+01  0.1144E+01  0.3810E+02  0.3810E+02
     46.254  0.3327E+01  0.3327E+01  0.3929E+02  0.3929E+02
     46.613  0.6592E+00  0.6592E+00  0.3953E+02  0.3953E+02
     46.972  0.3676E+00  0.3677E+00  0.3966E+02  0.3966E+02
     47.331  0.3337E+01  0.3337E+01  0.4086E+02  0.4086E+02
     47.690  0.6492E+00  0.6491E+00  0.4109E+02  0.4109E+02
     48.049  0.7466E+00  0.7466E+00  0.4136E+02  0.4136E+02
     48.408  0.1740E+01  0.1740E+01  0.4199E+02  0.4199E+02
     48.767  0.1044E+01  0.1044E+01  0.4241E+02  0.4241E+02
     49.126  0.3422E-05  0.3430E-05  0.4241E+02  0.4241E+02
     49.485  0.1233E+01  0.1233E+01  0.4285E+02  0.4285E+02
     49.844  0.2900E+00  0.2899E+00  0.4296E+02  0.4296E+02
     50.203  0.2058E+01  0.2058E+01  0.4370E+02  0.4370E+02
     50.562  0.2796E+00  0.2796E+00  0.4382E+02  0.4382E+02
     50.921  0.2556E+01  0.2556E+01  0.4474E+02  0.4474E+02
     51.280  0.1520E+01  0.1512E+01  0.4533E+02  0.4532E+02
     51.639  0.9928E+00  0.1000E+01  0.4568E+02  0.4568E+02
     51.998  0.1417E+01  0.1410E+01  0.4619E+02  0.4619E+02
     52.357  0.1381E+01  0.1382E+01  0.4670E+02  0.4670E+02
     52.716  0.2089E+01  0.2089E+01  0.4745E+02  0.4745E+02
     53.075  0.1042E+00  0.1241E+00  0.4749E+02  0.4750E+02
     53.434  0.2374E+01  0.2357E+01  0.4834E+02  0.4834E+02
     53.793  0.1288E+01  0.1295E+01  0.4881E+02  0.4881E+02
     54.152  0.3482E+00  0.3482E+00  0.4894E+02  0.4894E+02
     54.511  0.4609E-10  0.3044E-05  0.4894E+02  0.4894E+02
     54.870  0.8632E+00  0.8434E+00  0.4925E+02  0.4924E+02
     55.229  0.1045E+01  0.1045E+01  0.4962E+02  0.4962E+02
     55.588  0.8700E+00  0.8704E+00  0.4994E+02  0.4994E+02
     55.947  0.1219E+00  0.2032E-01  0.4998E+02  0.4994E+02
     56.306  0.1235E+01  0.1423E+01  0.5042E+02  0.5046E+02
     56.665  0.1216E+00  0.3352E-01  0.5047E+02  0.5047E+02
     57.024  0.2066E+01  0.2100E+01  0.5121E+02  0.5122E+02
     57.383  0.1740E+01  0.1989E+01  0.5184E+02  0.5194E+02
     57.742  0.1309E+00  0.3040E+00  0.5189E+02  0.5205E+02
     58.101  0.2175E+01  0.1998E+01  0.5267E+02  0.5276E+02
     58.460  0.1282E+01  0.1042E+01  0.5314E+02  0.5314E+02
     58.819  0.4418E+00  0.6530E+00  0.5330E+02  0.5338E+02
     59.178  0.3416E+00  0.1304E+00  0.5342E+02  0.5342E+02
     59.537  0.8292E-01  0.1174E+00  0.5345E+02  0.5346E+02
     59.896  0.6719E+00  0.1479E+01  0.5369E+02  0.5400E+02
     60.255  0.6815E+00  0.0000E+00  0.5394E+02  0.5400E+02
     60.614  0.1739E+00  0.0000E+00  0.5400E+02  0.5400E+02
     60.973  0.0000E+00  0.0000E+00  0.5400E+02  0.5400E+02
     61.332  0.0000E+00  0.0000E+00  0.5400E+02  0.5400E+02
     61.691  0.0000E+00  0.0000E+00  0.5400E+02  0.5400E+02
     62.050  0.0000E+00  0.0000E+00  0.5400E+02  0.5400E+02
     62.409  0.0000E+00  0.0000E+00  0.5400E+02  0.5400E+02
     62.768  0.0000E+00  0.0000E+00  0.5400E+02  0.5400E+02
     63.127  0.0000E+00  0.0000E+00  0.5400E+02  0.5400E+02
     63.486  0.0000E+00  0.0000E+00  0.5400E+02  0.5400E+02
     63.845  0.0000E+00  0.0000E+00  0.5400E+02  0.5400E+02
     64.205  0.0000E+00  0.0000E+00  0.5400E+02  0.5400E+02
     64.564  0.0000E+00  0.0000E+00  0.5400E+02  0.5400E+02
     64.923  0.0000E+00  0.0000E+00  0.5400E+02  0.5400E+02
     65.282  0.0000E+00  0.0000E+00  0.5400E+02  0.5400E+02
     65.641  0.0000E+00  0.0000E+00  0.5400E+02  0.5400E+02
     66.000  0.0000E+00  0.0000E+00  0.5400E+02  0.5400E+02
     66.359  0.0000E+00  0.0000E+00  0.5400E+02  0.5400E+02
     66.718  0.0000E+00  0.0000E+00  0.5400E+02  0.5400E+02
     67.077  0.0000E+00  0.0000E+00  0.5400E+02  0.5400E+02
     67.436  0.0000E+00  0.0000E+00  0.5400E+02  0.5400E+02
     67.795  0.0000E+00  0.0000E+00  0.5400E+02  0.5400E+02
     68.154  0.0000E+00  0.0000E+00  0.5400E+02  0.5400E+02
     68.513  0.0000E+00  0.0000E+00  0.5400E+02  0.5400E+02
     68.872  0.0000E+00  0.0000E+00  0.5400E+02  0.5400E+02
     69.231  0.0000E+00  0.0000E+00  0.5400E+02  0.5400E+02
     69.590  0.0000E+00  0.0000E+00  0.5400E+02  0.5400E+02
     69.949  0.0000E+00  0.0000E+00  0.5400E+02  0.5400E+02
     70.308  0.0000E+00  0.0000E+00  0.5400E+02  0.5400E+02
     70.667  0.0000E+00  0.0000E+00  0.5400E+02  0.5400E+02
     71.026  0.0000E+00  0.0000E+00  0.5400E+02  0.5400E+02
     71.385  0.0000E+00  0.0000E+00  0.5400E+02  0.5400E+02
     71.744  0.0000E+00  0.0000E+00  0.5400E+02  0.5400E+02
     72.103  0.0000E+00  0.0000E+00  0.5400E+02  0.5400E+02
     72.462  0.0000E+00  0.0000E+00  0.5400E+02  0.5400E+02
     72.821  0.0000E+00  0.0000E+00  0.5400E+02  0.5400E+02
     73.180  0.0000E+00  0.0000E+00  0.5400E+02  0.5400E+02
     73.539  0.0000E+00  0.0000E+00  0.5400E+02  0.5400E+02
     73.898  0.0000E+00  0.0000E+00  0.5400E+02  0.5400E+02
     74.257  0.0000E+00  0.0000E+00  0.5400E+02  0.5400E+02
     74.616  0.0000E+00  0.0000E+00  0.5400E+02  0.5400E+02
     74.975  0.0000E+00  0.0000E+00  0.5400E+02  0.5400E+02
     75.334  0.0000E+00  0.0000E+00  0.5400E+02  0.5400E+02
     75.693  0.0000E+00  0.0000E+00  0.5400E+02  0.5400E+02
     76.052  0.0000E+00  0.0000E+00  0.5400E+02  0.5400E+02
     76.411  0.0000E+00  0.0000E+00  0.5400E+02  0.5400E+02
     76.770  0.0000E+00  0.0000E+00  0.5400E+02  0.5400E+02
     77.129  0.0000E+00  0.0000E+00  0.5400E+02  0.5400E+02
     77.488  0.0000E+00  0.0000E+00  0.5400E+02  0.5400E+02
     77.847  0.0000E+00  0.0000E+00  0.5400E+02  0.5400E+02
     78.206  0.0000E+00  0.0000E+00  0.5400E+02  0.5400E+02
     78.565  0.0000E+00  0.0000E+00  0.5400E+02  0.5400E+02
     78.924  0.0000E+00  0.0000E+00  0.5400E+02  0.5400E+02
     79.283  0.0000E+00  0.0000E+00  0.5400E+02  0.5400E+02
     79.642  0.0000E+00  0.0000E+00  0.5400E+02  0.5400E+02
     80.001  0.0000E+00  0.0000E+00  0.5400E+02  0.5400E+02
     80.360  0.0000E+00  0.0000E+00  0.5400E+02  0.5400E+02
     80.719  0.0000E+00  0.0000E+00  0.5400E+02  0.5400E+02
     81.078  0.0000E+00  0.0000E+00  0.5400E+02  0.5400E+02
     81.437  0.0000E+00  0.0000E+00  0.5400E+02  0.5400E+02
     81.796  0.0000E+00  0.0000E+00  0.5400E+02  0.5400E+02
     82.155  0.0000E+00  0.0000E+00  0.5400E+02  0.5400E+02
     82.514  0.0000E+00  0.0000E+00  0.5400E+02  0.5400E+02
     82.873  0.0000E+00  0.0000E+00  0.5400E+02  0.5400E+02
     83.232  0.0000E+00  0.0000E+00  0.5400E+02  0.5400E+02
     83.591  0.0000E+00  0.0000E+00  0.5400E+02  0.5400E+02
     83.950  0.0000E+00  0.0000E+00  0.5400E+02  0.5400E+02
     84.310  0.0000E+00  0.0000E+00  0.5400E+02  0.5400E+02
     84.669  0.0000E+00  0.0000E+00  0.5400E+02  0.5400E+02
     85.028  0.0000E+00  0.0000E+00  0.5400E+02  0.5400E+02
     85.387  0.0000E+00  0.0000E+00  0.5400E+02  0.5400E+02
     85.746  0.0000E+00  0.0000E+00  0.5400E+02  0.5400E+02
     86.105  0.0000E+00  0.0000E+00  0.5400E+02  0.5400E+02
     86.464  0.0000E+00  0.0000E+00  0.5400E+02  0.5400E+02
     86.823  0.0000E+00  0.0000E+00  0.5400E+02  0.5400E+02
     87.182  0.0000E+00  0.0000E+00  0.5400E+02  0.5400E+02
     87.541  0.0000E+00  0.0000E+00  0.5400E+02  0.5400E+02
     87.900  0.0000E+00  0.0000E+00  0.5400E+02  0.5400E+02
     88.259  0.0000E+00  0.0000E+00  0.5400E+02  0.5400E+02
     88.618  0.0000E+00  0.0000E+00  0.5400E+02  0.5400E+02
     88.977  0.0000E+00  0.0000E+00  0.5400E+02  0.5400E+02
     89.336  0.0000E+00  0.0000E+00  0.5400E+02  0.5400E+02
     89.695  0.0000E+00  0.0000E+00  0.5400E+02  0.5400E+02
     90.054  0.0000E+00  0.0000E+00  0.5400E+02  0.5400E+02
     90.413  0.0000E+00  0.0000E+00  0.5400E+02  0.5400E+02
     90.772  0.0000E+00  0.0000E+00  0.5400E+02  0.5400E+02
     91.131  0.0000E+00  0.0000E+00  0.5400E+02  0.5400E+02
     91.490  0.0000E+00  0.0000E+00  0.5400E+02  0.5400E+02
     91.849  0.0000E+00  0.0000E+00  0.5400E+02  0.5400E+02
     92.208  0.0000E+00  0.0000E+00  0.5400E+02  0.5400E+02
