   2   2   0   0
  0.2234237E+02  0.3983133E-09  0.3983133E-09  0.3983133E-09  0.5000000E-15
  1.000000000000000E-004
  CAR 
 unknown system                          
     93.43925798    -15.55620300  301      3.79049132      1.00000000
    -15.556  0.0000E+00  0.0000E+00
    -15.193  0.0000E+00  0.0000E+00
    -14.830  0.0000E+00  0.0000E+00
    -14.466  0.0000E+00  0.0000E+00
    -14.103  0.0000E+00  0.0000E+00
    -13.740  0.0000E+00  0.0000E+00
    -13.376  0.0000E+00  0.0000E+00
    -13.013  0.0000E+00  0.0000E+00
    -12.650  0.0000E+00  0.0000E+00
    -12.286  0.0000E+00  0.0000E+00
    -11.923  0.0000E+00  0.0000E+00
    -11.560  0.0000E+00  0.0000E+00
    -11.196 -0.1145E-61 -0.4160E-62
    -10.833 -0.5542E-10 -0.2013E-10
    -10.470  0.8606E-01  0.3127E-01
    -10.106 -0.2470E-19  0.3125E-01
     -9.743  0.6088E+00  0.2524E+00
     -9.380  0.6035E+00  0.4717E+00
     -9.016 -0.3133E-49  0.4688E+00
     -8.653 -0.5729E-05  0.4687E+00
     -8.290  0.1026E+01  0.8417E+00
     -7.927  0.3495E+00  0.9686E+00
     -7.563  0.2065E+01  0.1719E+01
     -7.200  0.0000E+00  0.1719E+01
     -6.837 -0.9958E-68  0.1719E+01
     -6.473 -0.6366E-12  0.1719E+01
     -6.110  0.7657E+00  0.1997E+01
     -5.747  0.7867E+00  0.2281E+01
     -5.383 -0.7238E-57  0.2281E+01
     -5.020 -0.7829E-08  0.2281E+01
     -4.657  0.3438E+00  0.2406E+01
     -4.293  0.2065E+01  0.3156E+01
     -3.930 -0.2246E-27  0.3156E+01
     -3.567  0.1990E-01  0.3163E+01
     -3.203  0.1012E+01  0.3531E+01
     -2.840  0.0000E+00  0.3531E+01
     -2.477  0.0000E+00  0.3531E+01
     -2.113 -0.6909E-66  0.3531E+01
     -1.750 -0.4285E-11  0.3531E+01
     -1.387  0.1140E+01  0.3945E+01
     -1.023  0.6736E-01  0.3969E+01
     -0.660  0.1982E+01  0.4689E+01
     -0.297  0.2156E+01  0.5469E+01
      0.066 -0.1780E-01  0.5462E+01
      0.430  0.5339E+00  0.5656E+01
      0.793 -0.2290E-01  0.5648E+01
      1.156  0.2087E+01  0.6406E+01
      1.520  0.1032E+01  0.6781E+01
      1.883  0.3806E+00  0.6920E+01
      2.246  0.1340E+01  0.7406E+01
      2.610  0.1258E+01  0.7863E+01
      2.973  0.1186E+00  0.7906E+01
      3.336 -0.5478E-07  0.7906E+01
      3.700  0.2580E+00  0.8000E+01
      4.063 -0.3550E-29  0.8000E+01
      4.426 -0.6798E-02  0.7998E+01
      4.790  0.4432E+00  0.8159E+01
      5.153  0.1680E+01  0.8769E+01
      5.516 -0.3118E-01  0.8757E+01
      5.880  0.2130E+01  0.9531E+01
      6.243  0.1688E+00  0.9593E+01
      6.606  0.8634E+00  0.9906E+01
      6.970  0.2564E+00  0.9999E+01
      7.333  0.5177E+00  0.1019E+02
      7.696 -0.7566E-09  0.1019E+02
      8.059  0.2090E+01  0.1095E+02
      8.423 -0.5885E-10  0.1094E+02
      8.786  0.2042E+01  0.1168E+02
      9.149  0.2058E+01  0.1243E+02
      9.513  0.1621E+01  0.1301E+02
      9.876  0.3658E+01  0.1434E+02
     10.239  0.4059E+00  0.1446E+02
     10.603  0.1256E+01  0.1492E+02
     10.966  0.2210E+01  0.1572E+02
     11.329 -0.3806E-05  0.1572E+02
     11.693  0.8762E+00  0.1604E+02
     12.056  0.1032E+01  0.1641E+02
     12.419  0.2844E-01  0.1642E+02
     12.783  0.2036E+01  0.1716E+02
     13.146 -0.8275E-50  0.1716E+02
     13.509 -0.1100E-05  0.1716E+02
     13.873  0.1720E+00  0.1722E+02
     14.236  0.1033E+01  0.1759E+02
     14.599  0.4459E+00  0.1776E+02
     14.963  0.3167E+01  0.1891E+02
     15.326  0.6129E+00  0.1913E+02
     15.689  0.6645E+00  0.1937E+02
     16.052  0.3808E+01  0.2075E+02
     16.416  0.3431E+00  0.2087E+02
     16.779  0.4304E+01  0.2244E+02
     17.142  0.3316E+01  0.2364E+02
     17.506  0.1349E+01  0.2412E+02
     17.869  0.3107E+01  0.2525E+02
     18.232  0.1031E+01  0.2562E+02
     18.596  0.1119E+01  0.2603E+02
     18.959 -0.3207E-45  0.2603E+02
     19.322 -0.1049E-03  0.2603E+02
     19.686  0.1376E+01  0.2653E+02
     20.049  0.0000E+00  0.2653E+02
     20.412 -0.1026E-41  0.2653E+02
     20.776 -0.6883E-03  0.2653E+02
     21.139  0.2065E+01  0.2728E+02
     21.502  0.2064E+01  0.2803E+02
     21.866  0.7957E+00  0.2832E+02
     22.229  0.4846E+00  0.2850E+02
     22.592  0.3568E+01  0.2979E+02
     22.956  0.2377E+01  0.3066E+02
     23.319  0.9979E+00  0.3102E+02
     23.682  0.5536E+01  0.3304E+02
     24.045  0.8560E+00  0.3333E+02
     24.409  0.4343E+01  0.3491E+02
     24.772  0.4072E+01  0.3639E+02
     25.135  0.4188E-01  0.3640E+02
     25.499  0.1555E+01  0.3697E+02
     25.862  0.1066E+01  0.3734E+02
     26.225  0.9087E+00  0.3767E+02
     26.589  0.3633E+01  0.3899E+02
     26.952  0.0000E+00  0.3897E+02
     27.315 -0.2345E-34  0.3897E+02
     27.679 -0.1839E-01  0.3896E+02
     28.042  0.2115E+01  0.3973E+02
     28.405 -0.2343E-03  0.3972E+02
     28.769  0.3097E+01  0.4084E+02
     29.132  0.2313E+01  0.4168E+02
     29.495  0.1151E+00  0.4170E+02
     29.859  0.3458E+01  0.4296E+02
     30.222  0.9173E+00  0.4327E+02
     30.585  0.3421E+01  0.4451E+02
     30.949  0.2466E+01  0.4541E+02
     31.312  0.3657E+01  0.4673E+02
     31.675  0.2153E+01  0.4751E+02
     32.038  0.2133E+01  0.4828E+02
     32.402  0.9265E+00  0.4862E+02
     32.765  0.4120E+01  0.5011E+02
     33.128  0.6327E+01  0.5241E+02
     33.492 -0.5326E-02  0.5237E+02
     33.855  0.1746E+01  0.5301E+02
     34.218  0.2344E+01  0.5385E+02
     34.582  0.2301E+01  0.5469E+02
     34.945  0.5036E+00  0.5487E+02
     35.308  0.8726E+00  0.5519E+02
     35.672  0.2071E+01  0.5594E+02
     36.035 -0.7494E-02  0.5593E+02
     36.398  0.1385E+01  0.5644E+02
     36.762 -0.3174E-02  0.5644E+02
     37.125  0.5179E+00  0.5662E+02
     37.488  0.2717E+01  0.5761E+02
     37.852  0.2587E+01  0.5855E+02
     38.215  0.2943E+01  0.5962E+02
     38.578  0.2778E+01  0.6063E+02
     38.942  0.1460E+01  0.6116E+02
     39.305  0.3743E+01  0.6252E+02
     39.668  0.2602E+01  0.6346E+02
     40.031  0.2234E+01  0.6427E+02
     40.395  0.3919E+01  0.6569E+02
     40.758  0.6244E+01  0.6795E+02
     41.121  0.4641E+01  0.6962E+02
     41.485  0.2237E+01  0.7044E+02
     41.848 -0.4357E-52  0.7044E+02
     42.211 -0.7032E-06  0.7044E+02
     42.575  0.1032E+01  0.7081E+02
     42.938  0.6794E+00  0.7106E+02
     43.301  0.1548E+01  0.7162E+02
     43.665  0.1282E+01  0.7209E+02
     44.028  0.4920E+01  0.7388E+02
     44.391 -0.3880E-18  0.7388E+02
     44.755  0.6690E+00  0.7412E+02
     45.118  0.9866E+00  0.7448E+02
     45.481  0.1278E+01  0.7495E+02
     45.845  0.3315E+01  0.7615E+02
     46.208  0.6064E+01  0.7836E+02
     46.571  0.1802E+01  0.7901E+02
     46.935  0.1322E+00  0.7906E+02
     47.298  0.7330E+01  0.8172E+02
     47.661  0.1336E+01  0.8220E+02
     48.024  0.1269E+01  0.8265E+02
     48.388  0.3550E+01  0.8394E+02
     48.751  0.2419E+01  0.8482E+02
     49.114 -0.1560E-04  0.8481E+02
     49.478  0.2476E+01  0.8571E+02
     49.841  0.3833E+00  0.8584E+02
     50.204  0.4495E+01  0.8748E+02
     50.568  0.4733E+00  0.8761E+02
     50.931  0.5439E+01  0.8958E+02
     51.294  0.3024E+01  0.9066E+02
     51.658  0.2443E+01  0.9154E+02
     52.021  0.2643E+01  0.9249E+02
     52.384  0.2552E+01  0.9341E+02
     52.748  0.4129E+01  0.9491E+02
     53.111  0.3139E+00  0.9502E+02
     53.474  0.4767E+01  0.9675E+02
     53.838  0.2572E+01  0.9768E+02
     54.201  0.6990E+00  0.9794E+02
     54.564 -0.1867E-01  0.9793E+02
     54.928  0.1736E+01  0.9856E+02
     55.291  0.2064E+01  0.9931E+02
     55.654  0.1724E+01  0.9994E+02
     56.017  0.2114E+01  0.1007E+03
     56.381  0.8107E+00  0.1010E+03
     56.744 -0.7149E-01  0.1010E+03
     57.107  0.6331E+01  0.1033E+03
     57.471  0.2152E+01  0.1041E+03
     57.834  0.2903E+01  0.1051E+03
     58.197  0.4983E+01  0.1069E+03
     58.561  0.1815E+01  0.1076E+03
     58.924  0.2853E+01  0.1086E+03
     59.287  0.3903E+00  0.1088E+03
     59.651  0.2866E+01  0.1098E+03
     60.014  0.2415E+01  0.1107E+03
     60.377  0.1038E+01  0.1111E+03
     60.741 -0.1617E-20  0.1111E+03
     61.104  0.3999E+00  0.1112E+03
     61.467  0.7429E-01  0.1112E+03
     61.831  0.2106E+01  0.1120E+03
     62.194  0.0000E+00  0.1120E+03
     62.557  0.0000E+00  0.1120E+03
     62.921  0.0000E+00  0.1120E+03
     63.284  0.0000E+00  0.1120E+03
     63.647  0.0000E+00  0.1120E+03
     64.010  0.0000E+00  0.1120E+03
     64.374  0.0000E+00  0.1120E+03
     64.737  0.0000E+00  0.1120E+03
     65.100  0.0000E+00  0.1120E+03
     65.464  0.0000E+00  0.1120E+03
     65.827  0.0000E+00  0.1120E+03
     66.190  0.0000E+00  0.1120E+03
     66.554  0.0000E+00  0.1120E+03
     66.917  0.0000E+00  0.1120E+03
     67.280  0.0000E+00  0.1120E+03
     67.644  0.0000E+00  0.1120E+03
     68.007  0.0000E+00  0.1120E+03
     68.370  0.0000E+00  0.1120E+03
     68.734  0.0000E+00  0.1120E+03
     69.097  0.0000E+00  0.1120E+03
     69.460  0.0000E+00  0.1120E+03
     69.824  0.0000E+00  0.1120E+03
     70.187  0.0000E+00  0.1120E+03
     70.550  0.0000E+00  0.1120E+03
     70.914  0.0000E+00  0.1120E+03
     71.277  0.0000E+00  0.1120E+03
     71.640  0.0000E+00  0.1120E+03
     72.003  0.0000E+00  0.1120E+03
     72.367  0.0000E+00  0.1120E+03
     72.730  0.0000E+00  0.1120E+03
     73.093  0.0000E+00  0.1120E+03
     73.457  0.0000E+00  0.1120E+03
     73.820  0.0000E+00  0.1120E+03
     74.183  0.0000E+00  0.1120E+03
     74.547  0.0000E+00  0.1120E+03
     74.910  0.0000E+00  0.1120E+03
     75.273  0.0000E+00  0.1120E+03
     75.637  0.0000E+00  0.1120E+03
     76.000  0.0000E+00  0.1120E+03
     76.363  0.0000E+00  0.1120E+03
     76.727  0.0000E+00  0.1120E+03
     77.090  0.0000E+00  0.1120E+03
     77.453  0.0000E+00  0.1120E+03
     77.817  0.0000E+00  0.1120E+03
     78.180  0.0000E+00  0.1120E+03
     78.543  0.0000E+00  0.1120E+03
     78.907  0.0000E+00  0.1120E+03
     79.270  0.0000E+00  0.1120E+03
     79.633  0.0000E+00  0.1120E+03
     79.996  0.0000E+00  0.1120E+03
     80.360  0.0000E+00  0.1120E+03
     80.723  0.0000E+00  0.1120E+03
     81.086  0.0000E+00  0.1120E+03
     81.450  0.0000E+00  0.1120E+03
     81.813  0.0000E+00  0.1120E+03
     82.176  0.0000E+00  0.1120E+03
     82.540  0.0000E+00  0.1120E+03
     82.903  0.0000E+00  0.1120E+03
     83.266  0.0000E+00  0.1120E+03
     83.630  0.0000E+00  0.1120E+03
     83.993  0.0000E+00  0.1120E+03
     84.356  0.0000E+00  0.1120E+03
     84.720  0.0000E+00  0.1120E+03
     85.083  0.0000E+00  0.1120E+03
     85.446  0.0000E+00  0.1120E+03
     85.810  0.0000E+00  0.1120E+03
     86.173  0.0000E+00  0.1120E+03
     86.536  0.0000E+00  0.1120E+03
     86.900  0.0000E+00  0.1120E+03
     87.263  0.0000E+00  0.1120E+03
     87.626  0.0000E+00  0.1120E+03
     87.989  0.0000E+00  0.1120E+03
     88.353  0.0000E+00  0.1120E+03
     88.716  0.0000E+00  0.1120E+03
     89.079  0.0000E+00  0.1120E+03
     89.443  0.0000E+00  0.1120E+03
     89.806  0.0000E+00  0.1120E+03
     90.169  0.0000E+00  0.1120E+03
     90.533  0.0000E+00  0.1120E+03
     90.896  0.0000E+00  0.1120E+03
     91.259  0.0000E+00  0.1120E+03
     91.623  0.0000E+00  0.1120E+03
     91.986  0.0000E+00  0.1120E+03
     92.349  0.0000E+00  0.1120E+03
     92.713  0.0000E+00  0.1120E+03
     93.076  0.0000E+00  0.1120E+03
     93.439  0.0000E+00  0.1120E+03
