    2    2    1    1
  0.2234237E+02  0.3983132E-09  0.3983132E-09  0.3983132E-09  0.5000000E-15
  1.000000000000000E-004
  CAR 
 unknown system                          
      8    108     56
 
  0.0000000E+00  0.0000000E+00  0.0000000E+00  0.1562500E-01
    1      -10.601864   1.000000
    2        3.532570   1.000002
    3        3.532570   1.000001
    4        3.532570   0.999997
    5        4.664282  -0.000000
    6        6.780034   0.000000
    7        6.780034   0.000000
    8        6.780034   0.000000
    9       10.868191   0.000000
   10       13.681341   0.000000
   11       13.681341   0.000000
   12       15.245936   0.000000
   13       15.245936   0.000000
   14       15.245936   0.000000
   15       18.276720   0.000000
   16       29.121018   0.000000
   17       29.121018   0.000000
   18       29.121018   0.000000
   19       30.335234   0.000000
   20       30.335235   0.000000
   21       30.335235   0.000000
   22       30.400646   0.000000
   23       30.400647   0.000000
   24       31.379838   0.000000
   25       31.379838   0.000000
   26       31.379838   0.000000
   27       39.571156   0.000000
   28       40.024823   0.000000
   29       40.024823   0.000000
   30       40.024823   0.000000
   31       42.815996   0.000000
   32       42.815996   0.000000
   33       43.470075   0.000000
   34       43.470075   0.000000
   35       44.923569   0.000000
   36       44.923569   0.000000
   37       44.923635   0.000000
   38       45.121253   0.000000
   39       45.443237   0.000000
   40       45.443237   0.000000
   41       45.443239   0.000000
   42       46.193542   0.000000
   43       46.193542   0.000000
   44       46.193544   0.000000
   45       46.601049   0.000000
   46       46.601049   0.000000
   47       46.601076   0.000000
   48       47.603364   0.000000
   49       47.603364   0.000000
   50       47.603405   0.000000
   51       50.975164   0.000000
   52       52.932658   0.000000
   53       52.932699   0.000000
   54       53.000720   0.000000
   55       53.049038   0.000000
   56       53.049305   0.000000
 
  0.2500000E+00  0.0000000E+00  0.0000000E+00  0.1250000E+00
    1       -9.769473   1.000000
    2       -1.494525   1.000000
    3        2.580388   1.000000
    4        2.580388   1.000000
    5        5.006550   0.000000
    6        7.928242   0.000000
    7        7.928243   0.000000
    8       10.232783   0.000000
    9       12.454122   0.000000
   10       12.583130   0.000000
   11       12.583131   0.000000
   12       15.520041   0.000000
   13       19.474147   0.000000
   14       19.474147   0.000000
   15       22.414704   0.000000
   16       22.632107   0.000000
   17       22.632107   0.000000
   18       23.420433   0.000000
   19       30.235027   0.000000
   20       30.235027   0.000000
   21       31.200942   0.000000
   22       31.200942   0.000000
   23       32.031098   0.000000
   24       32.854823   0.000000
   25       33.795521   0.000000
   26       34.953061   0.000000
   27       34.953061   0.000000
   28       37.845948   0.000000
   29       37.845949   0.000000
   30       38.237019   0.000000
   31       38.237019   0.000000
   32       40.102782   0.000000
   33       40.664290   0.000000
   34       40.664290   0.000000
   35       40.992118   0.000000
   36       41.325496   0.000000
   37       43.719166   0.000000
   38       43.719167   0.000000
   39       44.717760   0.000000
   40       45.708356   0.000000
   41       45.947299   0.000000
   42       45.947299   0.000000
   43       46.369392   0.000000
   44       49.873463   0.000000
   45       49.873463   0.000000
   46       51.040142   0.000000
   47       51.040165   0.000000
   48       51.942756   0.000000
   49       52.227094   0.000000
   50       52.227134   0.000000
   51       53.644349   0.000000
   52       54.783140   0.000000
   53       57.863559   0.000000
   54       57.871214   0.000000
   55       58.544228   0.000000
   56       58.589239   0.000000
 
  0.5000000E+00  0.0000000E+00  0.0000000E+00  0.6250000E-01
    1       -8.243175   1.000000
    2       -4.809537   1.000000
    3        1.990404   1.000000
    4        1.990404   1.000000
    5        4.474030  -0.000000
    6        7.998715   0.000000
    7        7.998715   0.000000
    8       11.497186   0.000000
    9       15.235176   0.000000
   10       15.838781   0.000000
   11       15.838781   0.000000
   12       16.229663   0.000000
   13       16.667950   0.000000
   14       16.667950   0.000000
   15       23.591598   0.000000
   16       24.748782   0.000000
   17       26.268061   0.000000
   18       26.268061   0.000000
   19       26.333381   0.000000
   20       26.333381   0.000000
   21       29.523539   0.000000
   22       30.766289   0.000000
   23       31.232651   0.000000
   24       31.232652   0.000000
   25       32.290635   0.000000
   26       32.290635   0.000000
   27       33.009001   0.000000
   28       36.129988   0.000000
   29       36.129988   0.000000
   30       36.276144   0.000000
   31       36.276144   0.000000
   32       37.236494   0.000000
   33       38.276949   0.000000
   34       38.457677   0.000000
   35       43.451019   0.000000
   36       43.451019   0.000000
   37       43.950925   0.000000
   38       45.012965   0.000000
   39       45.012965   0.000000
   40       45.971793   0.000000
   41       49.415562   0.000000
   42       49.415563   0.000000
   43       50.626744   0.000000
   44       50.626746   0.000000
   45       51.484644   0.000000
   46       53.616875   0.000000
   47       53.925751   0.000000
   48       53.925794   0.000000
   49       55.418801   0.000000
   50       55.419076   0.000000
   51       56.023742   0.000000
   52       57.174559   0.000000
   53       57.175904   0.000000
   54       59.275447   0.000000
   55       59.292427   0.000000
   56       59.895533   0.000000
 
  0.2500000E+00  0.2500000E+00  0.0000000E+00  0.9375000E-01
    1       -9.468159   1.000000
    2       -1.411737   1.000000
    3        1.304558   1.000000
    4        1.304558   1.000000
    5        5.121390   0.000000
    6        7.082577   0.000000
    7       10.330035   0.000000
    8       10.330036   0.000000
    9       11.621867   0.000000
   10       14.778076   0.000000
   11       14.806573   0.000000
   12       17.391031   0.000000
   13       17.391031   0.000000
   14       18.013942   0.000000
   15       22.245137   0.000000
   16       22.245137   0.000000
   17       23.455246   0.000000
   18       24.531870   0.000000
   19       25.182533   0.000000
   20       30.134406   0.000000
   21       31.661785   0.000000
   22       31.772800   0.000000
   23       31.772800   0.000000
   24       32.847845   0.000000
   25       32.847845   0.000000
   26       33.814612   0.000000
   27       34.444273   0.000000
   28       37.771185   0.000000
   29       38.919491   0.000000
   30       39.062473   0.000000
   31       39.062473   0.000000
   32       39.989153   0.000000
   33       39.989153   0.000000
   34       40.824107   0.000000
   35       42.399735   0.000000
   36       42.399735   0.000000
   37       42.899390   0.000000
   38       43.108716   0.000000
   39       43.725724   0.000000
   40       45.706549   0.000000
   41       46.013917   0.000000
   42       46.013918   0.000000
   43       47.821498   0.000000
   44       50.148039   0.000000
   45       50.148040   0.000000
   46       50.454357   0.000000
   47       50.629500   0.000000
   48       51.933280   0.000000
   49       51.933282   0.000000
   50       52.104965   0.000000
   51       53.265719   0.000000
   52       53.608703   0.000000
   53       56.929948   0.000000
   54       58.176872   0.000000
   55       58.180052   0.000000
   56       61.086600   0.000000
 
  0.5000000E+00  0.2500000E+00  0.0000000E+00  0.3750000E+00
    1       -7.782201   1.000000
    2       -4.510863   1.000000
    3       -0.522927   1.000000
    4        0.887806   1.000000
    5        5.570422   0.000000
    6        8.670667   0.000000
    7        9.824518   0.000000
    8       10.676853   0.000000
    9       14.655839   0.000000
   10       15.855813   0.000000
   11       16.551361   0.000000
   12       17.020129   0.000000
   13       17.756237   0.000000
   14       21.350273   0.000000
   15       22.386270   0.000000
   16       23.648766   0.000000
   17       24.075132   0.000000
   18       24.131393   0.000000
   19       24.549338   0.000000
   20       26.532703   0.000000
   21       28.557787   0.000000
   22       29.070312   0.000000
   23       29.808900   0.000000
   24       31.295202   0.000000
   25       32.529295   0.000000
   26       33.052660   0.000000
   27       33.079525   0.000000
   28       34.183648   0.000000
   29       35.559523   0.000000
   30       37.494287   0.000000
   31       38.079994   0.000000
   32       39.550365   0.000000
   33       40.305468   0.000000
   34       40.493642   0.000000
   35       40.929691   0.000000
   36       43.753520   0.000000
   37       45.532296   0.000000
   38       46.096634   0.000000
   39       47.002426   0.000000
   40       47.101353   0.000000
   41       47.137530   0.000000
   42       48.366009   0.000000
   43       48.642695   0.000000
   44       50.137570   0.000000
   45       50.878587   0.000000
   46       51.611034   0.000000
   47       52.576983   0.000000
   48       53.165842   0.000000
   49       55.050340   0.000000
   50       55.982725   0.000000
   51       56.800067   0.000000
   52       57.097100   0.000000
   53       57.826800   0.000000
   54       59.416689   0.000000
   55       59.791104   0.000000
   56       61.515198   0.000000
 
 -0.2500000E+00  0.2500000E+00  0.0000000E+00  0.1875000E+00
    1       -8.479990   1.000000
    2       -3.528421   1.000000
    3       -0.689261   1.000000
    4        1.890734   1.000000
    5        6.264978   0.000000
    6        9.218561   0.000000
    7        9.510498   0.000000
    8        9.799186   0.000000
    9       11.872352   0.000000
   10       14.100269   0.000000
   11       16.610524   0.000000
   12       17.130700   0.000000
   13       18.373427   0.000000
   14       20.963923   0.000000
   15       22.631000   0.000000
   16       23.282049   0.000000
   17       23.624342   0.000000
   18       25.426803   0.000000
   19       26.198984   0.000000
   20       27.764510   0.000000
   21       28.556038   0.000000
   22       29.630827   0.000000
   23       30.407634   0.000000
   24       30.551147   0.000000
   25       32.484492   0.000000
   26       32.563721   0.000000
   27       34.227100   0.000000
   28       34.445347   0.000000
   29       38.242385   0.000000
   30       38.733157   0.000000
   31       39.061910   0.000000
   32       39.302707   0.000000
   33       40.179394   0.000000
   34       40.572900   0.000000
   35       40.666817   0.000000
   36       40.746596   0.000000
   37       40.877645   0.000000
   38       45.238780   0.000000
   39       46.248165   0.000000
   40       47.598821   0.000000
   41       48.009118   0.000000
   42       48.274317   0.000000
   43       50.828917   0.000000
   44       51.183211   0.000000
   45       52.028733   0.000000
   46       52.541595   0.000000
   47       52.564525   0.000000
   48       53.161862   0.000000
   49       53.717398   0.000000
   50       54.649743   0.000000
   51       55.406027   0.000000
   52       57.123356   0.000000
   53       57.796193   0.000000
   54       57.975446   0.000000
   55       58.685325   0.000000
   56       58.701404   0.000000
 
  0.5000000E+00  0.5000000E+00  0.0000000E+00  0.4687500E-01
    1       -6.209706   1.000000
    2       -6.209705   1.000000
    3        0.131893   1.000000
    4        0.131894   1.000000
    5        4.829200  -0.000000
    6        4.829201  -0.000000
    7       14.433635   0.000000
    8       14.433635   0.000000
    9       16.573567   0.000000
   10       16.573568   0.000000
   11       17.077657   0.000000
   12       17.077657   0.000000
   13       18.052974   0.000000
   14       18.052974   0.000000
   15       23.622231   0.000000
   16       23.622231   0.000000
   17       23.660123   0.000000
   18       23.660123   0.000000
   19       23.759231   0.000000
   20       23.759232   0.000000
   21       24.473329   0.000000
   22       24.473329   0.000000
   23       31.815802   0.000000
   24       31.815802   0.000000
   25       33.587662   0.000000
   26       33.587662   0.000000
   27       36.865549   0.000000
   28       36.865549   0.000000
   29       37.265687   0.000000
   30       37.265687   0.000000
   31       39.727225   0.000000
   32       39.727225   0.000000
   33       39.744172   0.000000
   34       39.744173   0.000000
   35       41.286171   0.000000
   36       41.286172   0.000000
   37       43.449232   0.000000
   38       43.449232   0.000000
   39       43.834197   0.000000
   40       43.834197   0.000000
   41       48.089681   0.000000
   42       48.089683   0.000000
   43       51.192718   0.000000
   44       51.192749   0.000000
   45       51.798822   0.000000
   46       51.798824   0.000000
   47       56.156728   0.000000
   48       56.162189   0.000000
   49       57.527060   0.000000
   50       57.531333   0.000000
   51       58.208304   0.000000
   52       58.235020   0.000000
   53       58.384995   0.000000
   54       58.407692   0.000000
   55       59.322462   0.000000
   56       59.616126   0.000000
 
 -0.2500000E+00  0.5000000E+00  0.2500000E+00  0.9375000E-01
    1       -6.093497   1.000000
    2       -6.093497   1.000000
    3       -0.757294   1.000000
    4       -0.757294   1.000000
    5        8.836790   0.000000
    6        8.836790   0.000000
    7        8.954272   0.000000
    8        8.954272   0.000000
    9       15.738118   0.000000
   10       15.738118   0.000000
   11       17.617633   0.000000
   12       17.617633   0.000000
   13       20.906618   0.000000
   14       20.906618   0.000000
   15       21.848517   0.000000
   16       21.848517   0.000000
   17       24.417368   0.000000
   18       24.417368   0.000000
   19       25.566871   0.000000
   20       25.566871   0.000000
   21       27.971035   0.000000
   22       27.971036   0.000000
   23       30.684199   0.000000
   24       30.684199   0.000000
   25       30.760487   0.000000
   26       30.760487   0.000000
   27       31.575916   0.000000
   28       31.575916   0.000000
   29       37.311175   0.000000
   30       37.311175   0.000000
   31       39.197214   0.000000
   32       39.197215   0.000000
   33       41.250917   0.000000
   34       41.250917   0.000000
   35       43.113211   0.000000
   36       43.113211   0.000000
   37       46.046255   0.000000
   38       46.046255   0.000000
   39       46.998045   0.000000
   40       46.998045   0.000000
   41       49.279805   0.000000
   42       49.279805   0.000000
   43       49.465003   0.000000
   44       49.465003   0.000000
   45       50.687656   0.000000
   46       50.687665   0.000000
   47       53.186929   0.000000
   48       53.186953   0.000000
   49       56.860371   0.000000
   50       56.862179   0.000000
   51       56.899519   0.000000
   52       56.903316   0.000000
   53       58.161432   0.000000
   54       58.170282   0.000000
   55       60.059065   0.000000
   56       60.162748   0.000000
 
  0.5000000E+00  0.5000000E+00  0.5000000E+00  0.0000000E+00
    1       -8.242677   1.000000
    2       -4.809212   1.000000
    3        1.997583   1.000000
    4        2.020591   1.000000
    5        4.449357  -0.000000
    6        7.993711   0.000000
    7        8.007022   0.000000
    8       11.487335   0.000000
    9       15.308193   0.000000
   10       15.849779   0.000000
   11       15.893030   0.000000
   12       16.215860   0.000000
   13       16.551292   0.000000
   14       16.662116   0.000000
   15       23.639256   0.000000
   16       24.719900   0.000000
   17       26.287725   0.000000
   18       26.299477   0.000000
   19       26.314378   0.000000
   20       26.318960   0.000000
   21       29.563431   0.000000
   22       30.762466   0.000000
   23       31.332325   0.000000
   24       31.472246   0.000000
   25       32.288514   0.000000
   26       32.537969   0.000000
   27       33.054614   0.000000
   28       36.193991   0.000000
   29       36.303301   0.000000
   30       36.883664   0.000000
   31       37.039510   0.000000
   32       37.090705   0.000000
   33       40.573155   0.000000
   34       40.581320   0.000000
   35       43.119996   0.000000
   36       44.810640   0.000000
   37       44.811664   0.000000
   38       48.519987   0.000000
   39       49.127673   0.000000
   40       50.182474   0.000000
   41       51.898352   0.000000
   42       52.364364   0.000000
   43       53.971369   0.000000
   44       54.494666   0.000000
   45       55.039366   0.000000
   46       56.256100   0.000000
   47       59.057132   0.000000
   48       59.990026   0.000000
   49       60.418550   0.000000
   50       63.156458   0.000000
   51       66.602153   0.000000
   52       67.756039   0.000000
   53       69.280649   0.000000
   54       72.416363   0.000000
   55       75.728617   0.000000
   56       84.423444   0.000000
 
  0.4897959E+00  0.4897959E+00  0.4897959E+00  0.0000000E+00
    1       -8.248158   1.000000
    2       -4.800707   1.000000
    3        1.998567   1.000000
    4        2.021627   1.000000
    5        4.450274  -0.000000
    6        7.993460   0.000000
    7        8.008246   0.000000
    8       11.488964   0.000000
    9       15.262311   0.000000
   10       15.779506   0.000000
   11       15.791536   0.000000
   12       16.290912   0.000000
   13       16.647281   0.000000
   14       16.714086   0.000000
   15       23.537885   0.000000
   16       24.826041   0.000000
   17       25.998194   0.000000
   18       25.999848   0.000000
   19       26.608572   0.000000
   20       26.617722   0.000000
   21       29.461629   0.000000
   22       30.938596   0.000000
   23       31.310352   0.000000
   24       31.407500   0.000000
   25       32.276241   0.000000
   26       32.528355   0.000000
   27       33.014795   0.000000
   28       36.183750   0.000000
   29       36.328525   0.000000
   30       36.874840   0.000000
   31       37.037713   0.000000
   32       37.056107   0.000000
   33       40.502195   0.000000
   34       40.587527   0.000000
   35       43.164374   0.000000
   36       44.796148   0.000000
   37       44.857546   0.000000
   38       48.365912   0.000000
   39       48.813083   0.000000
   40       50.106441   0.000000
   41       51.673516   0.000000
   42       52.101099   0.000000
   43       54.111440   0.000000
   44       54.497837   0.000000
   45       54.842320   0.000000
   46       56.145303   0.000000
   47       59.122660   0.000000
   48       59.549930   0.000000
   49       60.115325   0.000000
   50       62.990867   0.000000
   51       66.252350   0.000000
   52       67.488884   0.000000
   53       69.294843   0.000000
   54       72.500730   0.000000
   55       75.883537   0.000000
   56       84.312244   0.000000
 
  0.4795918E+00  0.4795918E+00  0.4795918E+00  0.0000000E+00
    1       -8.264413   1.000000
    2       -4.775358   1.000000
    3        2.001592   1.000000
    4        2.024694   1.000000
    5        4.453083  -0.000000
    6        7.994952   0.000000
    7        8.009767   0.000000
    8       11.493618   0.000000
    9       15.135513   0.000000
   10       15.625053   0.000000
   11       15.655064   0.000000
   12       16.426896   0.000000
   13       16.809448   0.000000
   14       16.849472   0.000000
   15       23.330145   0.000000
   16       25.047103   0.000000
   17       25.697306   0.000000
   18       25.699938   0.000000
   19       26.913065   0.000000
   20       26.923682   0.000000
   21       29.253270   0.000000
   22       31.150042   0.000000
   23       31.262052   0.000000
   24       31.442826   0.000000
   25       32.262176   0.000000
   26       32.517928   0.000000
   27       32.981168   0.000000
   28       36.180107   0.000000
   29       36.364319   0.000000
   30       36.882030   0.000000
   31       36.988320   0.000000
   32       37.074062   0.000000
   33       40.408816   0.000000
   34       40.730480   0.000000
   35       43.152056   0.000000
   36       44.766018   0.000000
   37       44.865287   0.000000
   38       48.212483   0.000000
   39       48.544418   0.000000
   40       50.111479   0.000000
   41       51.375862   0.000000
   42       51.833081   0.000000
   43       54.251922   0.000000
   44       54.601160   0.000000
   45       54.759813   0.000000
   46       56.079681   0.000000
   47       59.175551   0.000000
   48       59.375725   0.000000
   49       59.797573   0.000000
   50       62.765826   0.000000
   51       66.097014   0.000000
   52       67.287538   0.000000
   53       69.425662   0.000000
   54       72.579016   0.000000
   55       76.052191   0.000000
   56       84.204102   0.000000
 
  0.4693878E+00  0.4693878E+00  0.4693878E+00  0.0000000E+00
    1       -8.290949   1.000000
    2       -4.733651   1.000000
    3        2.006657   1.000000
    4        2.029791   1.000000
    5        4.457783  -0.000000
    6        7.997682   0.000000
    7        8.012024   0.000000
    8       11.501267   0.000000
    9       14.965844   0.000000
   10       15.450730   0.000000
   11       15.487123   0.000000
   12       16.591428   0.000000
   13       17.002309   0.000000
   14       17.029854   0.000000
   15       23.079753   0.000000
   16       25.319687   0.000000
   17       25.398612   0.000000
   18       25.400598   0.000000
   19       27.219135   0.000000
   20       27.230989   0.000000
   21       28.996466   0.000000
   22       31.311335   0.000000
   23       31.312039   0.000000
   24       31.477778   0.000000
   25       32.242818   0.000000
   26       32.501931   0.000000
   27       32.944678   0.000000
   28       36.184787   0.000000
   29       36.408190   0.000000
   30       36.910238   0.000000
   31       36.947923   0.000000
   32       37.079696   0.000000
   33       40.414945   0.000000
   34       40.815605   0.000000
   35       43.158848   0.000000
   36       44.745929   0.000000
   37       44.917671   0.000000
   38       47.986261   0.000000
   39       48.269703   0.000000
   40       50.131145   0.000000
   41       51.181018   0.000000
   42       51.560531   0.000000
   43       54.352008   0.000000
   44       54.449344   0.000000
   45       54.556467   0.000000
   46       56.012896   0.000000
   47       59.005472   0.000000
   48       59.337414   0.000000
   49       59.377895   0.000000
   50       62.526748   0.000000
   51       65.842599   0.000000
   52       67.194146   0.000000
   53       69.495125   0.000000
   54       72.651748   0.000000
   55       76.270088   0.000000
   56       84.164597   0.000000
 
  0.4591837E+00  0.4591837E+00  0.4591837E+00  0.0000000E+00
    1       -8.327006   1.000000
    2       -4.676366   1.000000
    3        2.012727   1.000000
    4        2.031118   1.000000
    5        4.469649  -0.000000
    6        8.002715   0.000000
    7        8.015157   0.000000
    8       11.512042   0.000000
    9       14.773110   0.000000
   10       15.269570   0.000000
   11       15.307329   0.000000
   12       16.766963   0.000000
   13       17.211979   0.000000
   14       17.233370   0.000000
   15       22.815160   0.000000
   16       25.101886   0.000000
   17       25.105327   0.000000
   18       25.613117   0.000000
   19       27.525918   0.000000
   20       27.539468   0.000000
   21       28.719896   0.000000
   22       31.310084   0.000000
   23       31.469348   0.000000
   24       31.592644   0.000000
   25       32.218037   0.000000
   26       32.484306   0.000000
   27       32.912273   0.000000
   28       36.197925   0.000000
   29       36.460326   0.000000
   30       36.916638   0.000000
   31       36.976065   0.000000
   32       37.061524   0.000000
   33       40.345751   0.000000
   34       41.122696   0.000000
   35       43.114940   0.000000
   36       44.727072   0.000000
   37       44.971223   0.000000
   38       47.722339   0.000000
   39       47.955527   0.000000
   40       50.251189   0.000000
   41       51.024198   0.000000
   42       51.264762   0.000000
   43       54.422485   0.000000
   44       54.570631   0.000000
   45       54.717961   0.000000
   46       56.023254   0.000000
   47       58.783883   0.000000
   48       59.106789   0.000000
   49       59.473155   0.000000
   50       62.279137   0.000000
   51       65.750552   0.000000
   52       67.039402   0.000000
   53       69.567005   0.000000
   54       72.678428   0.000000
   55       76.400852   0.000000
   56       84.046804   0.000000
 
  0.4489796E+00  0.4489796E+00  0.4489796E+00  0.0000000E+00
    1       -8.371630   1.000000
    2       -4.604407   1.000000
    3        2.021948   1.000000
    4        2.040385   1.000000
    5        4.478040  -0.000000
    6        8.007192   0.000000
    7        8.019120   0.000000
    8       11.525488   0.000000
    9       14.569863   0.000000
   10       15.085137   0.000000
   11       15.123528   0.000000
   12       16.944040   0.000000
   13       17.432184   0.000000
   14       17.450178   0.000000
   15       22.549549   0.000000
   16       24.807497   0.000000
   17       24.811311   0.000000
   18       25.916098   0.000000
   19       27.832941   0.000000
   20       27.848615   0.000000
   21       28.437233   0.000000
   22       31.301583   0.000000
   23       31.458375   0.000000
   24       31.907929   0.000000
   25       32.176713   0.000000
   26       32.458541   0.000000
   27       32.872304   0.000000
   28       36.219605   0.000000
   29       36.518217   0.000000
   30       36.903373   0.000000
   31       37.034869   0.000000
   32       37.065106   0.000000
   33       40.523489   0.000000
   34       41.309379   0.000000
   35       43.044088   0.000000
   36       44.723639   0.000000
   37       44.990820   0.000000
   38       47.367707   0.000000
   39       47.624955   0.000000
   40       50.276735   0.000000
   41       50.961648   0.000000
   42       51.162054   0.000000
   43       54.444305   0.000000
   44       54.488235   0.000000
   45       54.874179   0.000000
   46       55.942226   0.000000
   47       58.420758   0.000000
   48       58.910947   0.000000
   49       59.656581   0.000000
   50       62.055503   0.000000
   51       65.583221   0.000000
   52       67.048002   0.000000
   53       69.785911   0.000000
   54       72.766106   0.000000
   55       76.534046   0.000000
   56       83.942761   0.000000
 
  0.4387755E+00  0.4387755E+00  0.4387755E+00  0.0000000E+00
    1       -8.423782   1.000000
    2       -4.518862   1.000000
    3        2.033211   1.000000
    4        2.051696   1.000000
    5        4.488290  -0.000000
    6        8.012351   0.000000
    7        8.023838   0.000000
    8       11.541682   0.000000
    9       14.360113   0.000000
   10       14.901492   0.000000
   11       14.939486   0.000000
   12       17.116180   0.000000
   13       17.660131   0.000000
   14       17.675751   0.000000
   15       22.290714   0.000000
   16       24.515608   0.000000
   17       24.519747   0.000000
   18       26.216536   0.000000
   19       28.137611   0.000000
   20       28.156526   0.000000
   21       28.163193   0.000000
   22       31.290682   0.000000
   23       31.442362   0.000000
   24       32.183698   0.000000
   25       32.183747   0.000000
   26       32.417928   0.000000
   27       32.818737   0.000000
   28       36.249817   0.000000
   29       36.582792   0.000000
   30       36.910925   0.000000
   31       36.978788   0.000000
   32       37.167481   0.000000
   33       40.523226   0.000000
   34       41.328769   0.000000
   35       43.109240   0.000000
   36       44.713679   0.000000
   37       45.042224   0.000000
   38       47.001324   0.000000
   39       47.321677   0.000000
   40       50.281952   0.000000
   41       50.624806   0.000000
   42       51.465203   0.000000
   43       54.152453   0.000000
   44       54.291707   0.000000
   45       54.947153   0.000000
   46       55.596782   0.000000
   47       57.955942   0.000000
   48       58.625359   0.000000
   49       59.612407   0.000000
   50       61.868717   0.000000
   51       65.170341   0.000000
   52       67.002163   0.000000
   53       69.977054   0.000000
   54       72.895475   0.000000
   55       76.669173   0.000000
   56       83.848377   0.000000
 
  0.4285714E+00  0.4285714E+00  0.4285714E+00  0.0000000E+00
    1       -8.482374   1.000000
    2       -4.420830   1.000000
    3        2.046507   1.000000
    4        2.065040   1.000000
    5        4.500392  -0.000000
    6        8.018064   0.000000
    7        8.029165   0.000000
    8       11.560458   0.000000
    9       14.146829   0.000000
   10       14.720299   0.000000
   11       14.757247   0.000000
   12       17.277920   0.000000
   13       17.894184   0.000000
   14       17.907715   0.000000
   15       22.044715   0.000000
   16       24.226390   0.000000
   17       24.230808   0.000000
   18       26.497731   0.000000
   19       27.910331   0.000000
   20       28.441525   0.000000
   21       28.463055   0.000000
   22       31.279098   0.000000
   23       31.428546   0.000000
   24       32.156914   0.000000
   25       32.382876   0.000000
   26       32.481380   0.000000
   27       32.771514   0.000000
   28       36.288205   0.000000
   29       36.653532   0.000000
   30       36.935069   0.000000
   31       36.948671   0.000000
   32       37.256297   0.000000