    2    2    1    2
  0.2234237E+02  0.3983132E-09  0.3983132E-09  0.3983132E-09  0.5000000E-15
  1.000000000000000E-004
  CAR 
 unknown system                          
      8    108     54
 
  0.0000000E+00  0.0000000E+00  0.0000000E+00  0.1562500E-01
    1      -10.601759    -10.601759   1.000000   1.000000
    2        3.532229      3.532231   1.000000   1.000000
    3        3.532229      3.532231   1.000000   1.000000
    4        3.532229      3.532231   1.000000   1.000000
    5        4.665197      4.665195   0.000000   0.000000
    6        6.780222      6.780216   0.000000   0.000000
    7        6.780222      6.780216   0.000000   0.000000
    8        6.780222      6.780217   0.000000   0.000000
    9       10.868366     10.868380   0.000000   0.000000
   10       13.681259     13.681254   0.000000   0.000000
   11       13.681259     13.681254   0.000000   0.000000
   12       15.246013     15.246007   0.000000   0.000000
   13       15.246013     15.246007   0.000000   0.000000
   14       15.246013     15.246008   0.000000   0.000000
   15       18.276832     18.276865   0.000000   0.000000
   16       29.121073     29.121071   0.000000   0.000000
   17       29.121074     29.121071   0.000000   0.000000
   18       29.121074     29.121071   0.000000   0.000000
   19       30.335361     30.335364   0.000000   0.000000
   20       30.335362     30.335365   0.000000   0.000000
   21       30.335362     30.335365   0.000000   0.000000
   22       30.400702     30.400694   0.000000   0.000000
   23       30.400702     30.400694   0.000000   0.000000
   24       31.379787     31.379785   0.000000   0.000000
   25       31.379787     31.379785   0.000000   0.000000
   26       31.379787     31.379785   0.000000   0.000000
   27       39.571264     39.571304   0.000000   0.000000
   28       40.024923     40.024923   0.000000   0.000000
   29       40.024923     40.024923   0.000000   0.000000
   30       40.024923     40.024923   0.000000   0.000000
   31       42.816072     42.816069   0.000000   0.000000
   32       42.816073     42.816071   0.000000   0.000000
   33       43.470106     43.470107   0.000000   0.000000
   34       43.470107     43.470109   0.000000   0.000000
   35       44.923659     44.923649   0.000000   0.000000
   36       44.923677     44.923660   0.000000   0.000000
   37       44.923703     44.923695   0.000000   0.000000
   38       45.121304     45.121311   0.000000   0.000000
   39       45.443274     45.443275   0.000000   0.000000
   40       45.443282     45.443278   0.000000   0.000000
   41       45.443296     45.443309   0.000000   0.000000
   42       46.193553     46.193551   0.000000   0.000000
   43       46.193588     46.193553   0.000000   0.000000
   44       46.193642     46.193829   0.000000   0.000000
   45       46.601140     46.601122   0.000000   0.000000
   46       46.601207     46.601155   0.000000   0.000000
   47       46.601337     46.601353   0.000000   0.000000
   48       47.603370     47.603400   0.000000   0.000000
   49       47.603729     47.603630   0.000000   0.000000
   50       47.603973     47.606453   0.000000   0.000000
   51       51.120634     51.246235   0.000000   0.000000
   52       52.945249     52.938057   0.000000   0.000000
   53       53.017480     52.977409   0.000000   0.000000
   54       53.095675     53.060276   0.000000   0.000000
 
  0.2500000E+00  0.0000000E+00  0.0000000E+00  0.1250000E+00
    1       -9.769359     -9.769359   1.000000   1.000000
    2       -1.494422     -1.494422   1.000000   1.000000
    3        2.580123      2.580124   1.000000   1.000000
    4        2.580123      2.580124   1.000000   1.000000
    5        5.007046      5.007044   0.000000   0.000000
    6        7.928370      7.928365   0.000000   0.000000
    7        7.928370      7.928366   0.000000   0.000000
    8       10.232969     10.232973   0.000000   0.000000
    9       12.454248     12.454256   0.000000   0.000000
   10       12.583094     12.583089   0.000000   0.000000
   11       12.583095     12.583089   0.000000   0.000000
   12       15.520155     15.520162   0.000000   0.000000
   13       19.474183     19.474178   0.000000   0.000000
   14       19.474183     19.474178   0.000000   0.000000
   15       22.414795     22.414811   0.000000   0.000000
   16       22.632110     22.632107   0.000000   0.000000
   17       22.632110     22.632107   0.000000   0.000000
   18       23.420527     23.420532   0.000000   0.000000
   19       30.235090     30.235085   0.000000   0.000000
   20       30.235090     30.235085   0.000000   0.000000
   21       31.201023     31.201024   0.000000   0.000000
   22       31.201023     31.201024   0.000000   0.000000
   23       32.031045     32.031044   0.000000   0.000000
   24       32.854897     32.854906   0.000000   0.000000
   25       33.795618     33.795620   0.000000   0.000000
   26       34.953089     34.953085   0.000000   0.000000
   27       34.953089     34.953085   0.000000   0.000000
   28       37.846034     37.846033   0.000000   0.000000
   29       37.846034     37.846033   0.000000   0.000000
   30       38.237100     38.237097   0.000000   0.000000
   31       38.237101     38.237097   0.000000   0.000000
   32       40.102830     40.102840   0.000000   0.000000
   33       40.664298     40.664298   0.000000   0.000000
   34       40.664298     40.664298   0.000000   0.000000
   35       40.992113     40.992107   0.000000   0.000000
   36       41.325578     41.325598   0.000000   0.000000
   37       43.719210     43.719209   0.000000   0.000000
   38       43.719211     43.719209   0.000000   0.000000
   39       44.717805     44.717806   0.000000   0.000000
   40       45.708466     45.708471   0.000000   0.000000
   41       45.947329     45.947327   0.000000   0.000000
   42       45.947329     45.947328   0.000000   0.000000
   43       46.369469     46.369466   0.000000   0.000000
   44       49.873526     49.873527   0.000000   0.000000
   45       49.873562     49.873567   0.000000   0.000000
   46       51.040224     51.040282   0.000000   0.000000
   47       51.040380     51.042560   0.000000   0.000000
   48       51.943310     51.947339   0.000000   0.000000
   49       52.227257     52.227274   0.000000   0.000000
   50       52.227745     52.228128   0.000000   0.000000
   51       53.648792     53.654243   0.000000   0.000000
   52       54.797871     54.819767   0.000000   0.000000
   53       57.904045     57.982388   0.000000   0.000000
   54       58.155152     58.316889   0.000000   0.000000
 
  0.5000000E+00  0.0000000E+00  0.0000000E+00  0.6250000E-01
    1       -8.243038     -8.243038   1.000000   1.000000
    2       -4.809446     -4.809447   1.000000   1.000000
    3        1.990159      1.990160   1.000000   1.000000
    4        1.990159      1.990160   1.000000   1.000000
    5        4.474535      4.474534   0.000000   0.000000
    6        7.998819      7.998813   0.000000   0.000000
    7        7.998819      7.998813   0.000000   0.000000
    8       11.497306     11.497317   0.000000   0.000000
    9       15.235252     15.235264   0.000000   0.000000
   10       15.838832     15.838826   0.000000   0.000000
   11       15.838833     15.838826   0.000000   0.000000
   12       16.229941     16.229937   0.000000   0.000000
   13       16.667878     16.667877   0.000000   0.000000
   14       16.667878     16.667877   0.000000   0.000000
   15       23.591647     23.591651   0.000000   0.000000
   16       24.748851     24.748856   0.000000   0.000000
   17       26.268106     26.268100   0.000000   0.000000
   18       26.268106     26.268100   0.000000   0.000000
   19       26.333414     26.333410   0.000000   0.000000
   20       26.333414     26.333410   0.000000   0.000000
   21       29.523621     29.523641   0.000000   0.000000
   22       30.766346     30.766355   0.000000   0.000000
   23       31.232678     31.232675   0.000000   0.000000
   24       31.232678     31.232675   0.000000   0.000000
   25       32.290719     32.290719   0.000000   0.000000
   26       32.290719     32.290719   0.000000   0.000000
   27       33.008943     33.008942   0.000000   0.000000
   28       36.130074     36.130078   0.000000   0.000000
   29       36.130074     36.130078   0.000000   0.000000
   30       36.276215     36.276209   0.000000   0.000000
   31       36.276215     36.276209   0.000000   0.000000
   32       37.236615     37.236611   0.000000   0.000000
   33       38.276949     38.276940   0.000000   0.000000
   34       38.457724     38.457742   0.000000   0.000000
   35       43.451055     43.451054   0.000000   0.000000
   36       43.451055     43.451054   0.000000   0.000000
   37       43.950969     43.950974   0.000000   0.000000
   38       45.013010     45.013009   0.000000   0.000000
   39       45.013011     45.013009   0.000000   0.000000
   40       45.971872     45.971867   0.000000   0.000000
   41       49.415615     49.415614   0.000000   0.000000
   42       49.415652     49.415620   0.000000   0.000000
   43       50.626854     50.626794   0.000000   0.000000
   44       50.626891     50.626947   0.000000   0.000000
   45       51.484960     51.484864   0.000000   0.000000
   46       53.620500     53.618056   0.000000   0.000000
   47       53.926975     53.926466   0.000000   0.000000
   48       53.946304     53.932854   0.000000   0.000000
   49       55.429766     55.431887   0.000000   0.000000
   50       55.487950     55.442411   0.000000   0.000000
   51       56.216027     56.231629   0.000000   0.000000
   52       57.203779     57.222875   0.000000   0.000000
   53       58.282663     57.478517   0.000000   0.000000
   54       60.366806     59.657417   0.000000   0.000000
 
  0.2500000E+00  0.2500000E+00  0.0000000E+00  0.9375000E-01
    1       -9.468044     -9.468044   1.000000   1.000000
    2       -1.411553     -1.411552   1.000000   1.000000
    3        1.304359      1.304358   1.000000   1.000000
    4        1.304359      1.304358   1.000000   1.000000
    5        5.121608      5.121607   0.000000   0.000000
    6        7.082829      7.082828   0.000000   0.000000
    7       10.330114     10.330112   0.000000   0.000000
    8       10.330114     10.330112   0.000000   0.000000
    9       11.621996     11.621994   0.000000   0.000000
   10       14.778007     14.778001   0.000000   0.000000
   11       14.806716     14.806725   0.000000   0.000000
   12       17.391093     17.391087   0.000000   0.000000
   13       17.391093     17.391087   0.000000   0.000000
   14       18.013969     18.013984   0.000000   0.000000
   15       22.245166     22.245165   0.000000   0.000000
   16       22.245166     22.245165   0.000000   0.000000
   17       23.455222     23.455217   0.000000   0.000000
   18       24.531989     24.531989   0.000000   0.000000
   19       25.182612     25.182621   0.000000   0.000000
   20       30.134457     30.134455   0.000000   0.000000
   21       31.661870     31.661876   0.000000   0.000000
   22       31.772843     31.772842   0.000000   0.000000
   23       31.772843     31.772842   0.000000   0.000000
   24       32.847900     32.847897   0.000000   0.000000
   25       32.847900     32.847897   0.000000   0.000000
   26       33.814686     33.814688   0.000000   0.000000
   27       34.444313     34.444317   0.000000   0.000000
   28       37.771238     37.771239   0.000000   0.000000
   29       38.919562     38.919556   0.000000   0.000000
   30       39.062525     39.062524   0.000000   0.000000
   31       39.062525     39.062524   0.000000   0.000000
   32       39.989188     39.989187   0.000000   0.000000
   33       39.989188     39.989187   0.000000   0.000000
   34       40.824161     40.824158   0.000000   0.000000
   35       42.399778     42.399771   0.000000   0.000000
   36       42.399778     42.399771   0.000000   0.000000
   37       42.899361     42.899362   0.000000   0.000000
   38       43.108811     43.108806   0.000000   0.000000
   39       43.725812     43.725830   0.000000   0.000000
   40       45.706587     45.706606   0.000000   0.000000
   41       46.013983     46.013987   0.000000   0.000000
   42       46.013983     46.013987   0.000000   0.000000
   43       47.821566     47.821574   0.000000   0.000000
   44       50.148109     50.148111   0.000000   0.000000
   45       50.148152     50.148149   0.000000   0.000000
   46       50.454388     50.454394   0.000000   0.000000
   47       50.629610     50.629661   0.000000   0.000000
   48       51.933346     51.933303   0.000000   0.000000
   49       51.933572     51.933685   0.000000   0.000000
   50       52.105138     52.105163   0.000000   0.000000
   51       53.269693     53.266745   0.000000   0.000000
   52       53.609830     53.613558   0.000000   0.000000
   53       56.976099     57.012220   0.000000   0.000000
   54       58.196852     58.261881   0.000000   0.000000
 
  0.5000000E+00  0.2500000E+00  0.0000000E+00  0.3750000E+00
    1       -7.782064     -7.782064   1.000000   1.000000
    2       -4.510714     -4.510714   1.000000   1.000000
    3       -0.523017     -0.523018   1.000000   1.000000
    4        0.887609      0.887609   1.000000   1.000000
    5        5.570642      5.570641   0.000000   0.000000
    6        8.670859      8.670857   0.000000   0.000000
    7        9.824598      9.824600   0.000000   0.000000
    8       10.676936     10.676932   0.000000   0.000000
    9       14.655938     14.655944   0.000000   0.000000
   10       15.855815     15.855811   0.000000   0.000000
   11       16.551462     16.551463   0.000000   0.000000
   12       17.020241     17.020241   0.000000   0.000000
   13       17.756193     17.756191   0.000000   0.000000
   14       21.350310     21.350317   0.000000   0.000000
   15       22.386312     22.386306   0.000000   0.000000
   16       23.648844     23.648843   0.000000   0.000000
   17       24.075128     24.075125   0.000000   0.000000
   18       24.131441     24.131444   0.000000   0.000000
   19       24.549396     24.549396   0.000000   0.000000
   20       26.532742     26.532742   0.000000   0.000000
   21       28.557851     28.557855   0.000000   0.000000
   22       29.070363     29.070357   0.000000   0.000000
   23       29.808976     29.808976   0.000000   0.000000
   24       31.295282     31.295288   0.000000   0.000000
   25       32.529313     32.529310   0.000000   0.000000
   26       33.052705     33.052705   0.000000   0.000000
   27       33.079570     33.079572   0.000000   0.000000
   28       34.183695     34.183695   0.000000   0.000000
   29       35.559591     35.559600   0.000000   0.000000
   30       37.494341     37.494340   0.000000   0.000000
   31       38.080058     38.080055   0.000000   0.000000
   32       39.550427     39.550425   0.000000   0.000000
   33       40.305520     40.305519   0.000000   0.000000
   34       40.493677     40.493677   0.000000   0.000000
   35       40.929750     40.929751   0.000000   0.000000
   36       43.753593     43.753590   0.000000   0.000000
   37       45.532343     45.532352   0.000000   0.000000
   38       46.096711     46.096714   0.000000   0.000000
   39       47.002475     47.002471   0.000000   0.000000
   40       47.101394     47.101400   0.000000   0.000000
   41       47.137579     47.137579   0.000000   0.000000
   42       48.366060     48.366058   0.000000   0.000000
   43       48.642764     48.642759   0.000000   0.000000
   44       50.137611     50.137612   0.000000   0.000000
   45       50.878706     50.878664   0.000000   0.000000
   46       51.611118     51.611098   0.000000   0.000000
   47       52.577105     52.577226   0.000000   0.000000
   48       53.166071     53.166409   0.000000   0.000000
   49       55.058231     55.057446   0.000000   0.000000
   50       55.989229     56.020108   0.000000   0.000000
   51       56.846385     56.819629   0.000000   0.000000
   52       57.145610     57.138189   0.000000   0.000000
   53       57.860424     58.013194   0.000000   0.000000
   54       59.910141     59.781997   0.000000   0.000000
 
 -0.2500000E+00  0.2500000E+00  0.0000000E+00  0.1875000E+00
    1       -8.479861     -8.479861   1.000000   1.000000
    2       -3.528266     -3.528266   1.000000   1.000000
    3       -0.689349     -0.689349   1.000000   1.000000
    4        1.890489      1.890489   1.000000   1.000000
    5        6.265274      6.265271   0.000000   0.000000
    6        9.218720      9.218715   0.000000   0.000000
    7        9.510533      9.510536   0.000000   0.000000
    8        9.799388      9.799389   0.000000   0.000000
    9       11.872277     11.872272   0.000000   0.000000
   10       14.100389     14.100392   0.000000   0.000000
   11       16.610613     16.610619   0.000000   0.000000
   12       17.130729     17.130727   0.000000   0.000000
   13       18.373454     18.373453   0.000000   0.000000
   14       20.963985     20.963985   0.000000   0.000000
   15       22.631074     22.631076   0.000000   0.000000
   16       23.282059     23.282057   0.000000   0.000000
   17       23.624387     23.624383   0.000000   0.000000
   18       25.426796     25.426792   0.000000   0.000000
   19       26.199052     26.199051   0.000000   0.000000
   20       27.764582     27.764595   0.000000   0.000000
   21       28.556081     28.556092   0.000000   0.000000
   22       29.630859     29.630856   0.000000   0.000000
   23       30.407683     30.407676   0.000000   0.000000
   24       30.551236     30.551235   0.000000   0.000000
   25       32.484573     32.484572   0.000000   0.000000
   26       32.563753     32.563753   0.000000   0.000000
   27       34.227145     34.227149   0.000000   0.000000
   28       34.445412     34.445407   0.000000   0.000000
   29       38.242447     38.242448   0.000000   0.000000
   30       38.733233     38.733236   0.000000   0.000000
   31       39.061980     39.061977   0.000000   0.000000
   32       39.302741     39.302740   0.000000   0.000000
   33       40.179440     40.179437   0.000000   0.000000
   34       40.572934     40.572934   0.000000   0.000000
   35       40.666860     40.666871   0.000000   0.000000
   36       40.746595     40.746594   0.000000   0.000000
   37       40.877727     40.877730   0.000000   0.000000
   38       45.238871     45.238866   0.000000   0.000000
   39       46.248211     46.248206   0.000000   0.000000
   40       47.598883     47.598885   0.000000   0.000000
   41       48.009184     48.009192   0.000000   0.000000
   42       48.274369     48.274365   0.000000   0.000000
   43       50.828979     50.828992   0.000000   0.000000
   44       51.183353     51.183356   0.000000   0.000000
   45       52.029143     52.029393   0.000000   0.000000
   46       52.542681     52.543236   0.000000   0.000000
   47       52.566302     52.564726   0.000000   0.000000
   48       53.170487     53.164584   0.000000   0.000000
   49       53.728733     53.720306   0.000000   0.000000
   50       54.736610     54.666021   0.000000   0.000000
   51       55.423162     55.419740   0.000000   0.000000
   52       57.259042     57.158657   0.000000   0.000000
   53       58.041474     57.924254   0.000000   0.000000
   54       58.810648     58.634132   0.000000   0.000000
 
  0.5000000E+00  0.5000000E+00  0.0000000E+00  0.4687500E-01
    1       -6.209560     -6.209560   1.000000   1.000000
    2       -6.209559     -6.209560   1.000000   1.000000
    3        0.131718      0.131717   1.000000   1.000000
    4        0.131718      0.131717   1.000000   1.000000
    5        4.829419      4.829419   0.000000   0.000000
    6        4.829419      4.829420   0.000000   0.000000
    7       14.433853     14.433849   0.000000   0.000000
    8       14.433854     14.433849   0.000000   0.000000
    9       16.573739     16.573743   0.000000   0.000000
   10       16.573739     16.573744   0.000000   0.000000
   11       17.077538     17.077541   0.000000   0.000000
   12       17.077538     17.077541   0.000000   0.000000
   13       18.052925     18.052920   0.000000   0.000000
   14       18.052925     18.052920   0.000000   0.000000
   15       23.622254     23.622267   0.000000   0.000000
   16       23.622254     23.622268   0.000000   0.000000
   17       23.660207     23.660197   0.000000   0.000000
   18       23.660207     23.660197   0.000000   0.000000
   19       23.759242     23.759239   0.000000   0.000000
   20       23.759242     23.759239   0.000000   0.000000
   21       24.473430     24.473432   0.000000   0.000000
   22       24.473430     24.473432   0.000000   0.000000
   23       31.815890     31.815888   0.000000   0.000000
   24       31.815890     31.815889   0.000000   0.000000
   25       33.587691     33.587692   0.000000   0.000000
   26       33.587691     33.587692   0.000000   0.000000
   27       36.865600     36.865599   0.000000   0.000000
   28       36.865600     36.865599   0.000000   0.000000
   29       37.265737     37.265738   0.000000   0.000000
   30       37.265737     37.265738   0.000000   0.000000
   31       39.727281     39.727278   0.000000   0.000000
   32       39.727282     39.727278   0.000000   0.000000
   33       39.744218     39.744224   0.000000   0.000000
   34       39.744218     39.744225   0.000000   0.000000
   35       41.286211     41.286205   0.000000   0.000000
   36       41.286212     41.286205   0.000000   0.000000
   37       43.449313     43.449319   0.000000   0.000000
   38       43.449313     43.449319   0.000000   0.000000
   39       43.834257     43.834265   0.000000   0.000000
   40       43.834258     43.834266   0.000000   0.000000
   41       48.089735     48.089737   0.000000   0.000000
   42       48.089740     48.089744   0.000000   0.000000
   43       51.192798     51.192815   0.000000   0.000000
   44       51.192886     51.193022   0.000000   0.000000
   45       51.798856     51.798830   0.000000   0.000000
   46       51.799878     51.799611   0.000000   0.000000
   47       56.189119     56.188231   0.000000   0.000000
   48       56.358548     56.283007   0.000000   0.000000
   49       57.626727     57.599739   0.000000   0.000000
   50       58.257614     58.083944   0.000000   0.000000
   51       58.362060     58.230164   0.000000   0.000000
   52       58.615126     58.617308   0.000000   0.000000
   53       58.980207     58.925077   0.000000   0.000000
   54       59.525076     59.492250   0.000000   0.000000
 
 -0.2500000E+00  0.5000000E+00  0.2500000E+00  0.9375000E-01
    1       -6.093338     -6.093338   1.000000   1.000000
    2       -6.093338     -6.093338   1.000000   1.000000
    3       -0.757412     -0.757413   1.000000   1.000000
    4       -0.757412     -0.757413   1.000000   1.000000
    5        8.837037      8.837032   0.000000   0.000000
    6        8.837038      8.837033   0.000000   0.000000
    7        8.954280      8.954284   0.000000   0.000000
    8        8.954281      8.954284   0.000000   0.000000
    9       15.738185     15.738186   0.000000   0.000000
   10       15.738185     15.738186   0.000000   0.000000
   11       17.617677     17.617672   0.000000   0.000000
   12       17.617677     17.617673   0.000000   0.000000
   13       20.906631     20.906641   0.000000   0.000000
   14       20.906632     20.906641   0.000000   0.000000
   15       21.848582     21.848578   0.000000   0.000000
   16       21.848582     21.848578   0.000000   0.000000
   17       24.417438     24.417434   0.000000   0.000000
   18       24.417438     24.417435   0.000000   0.000000
   19       25.566881     25.566881   0.000000   0.000000
   20       25.566881     25.566881   0.000000   0.000000
   21       27.971123     27.971124   0.000000   0.000000
   22       27.971123     27.971124   0.000000   0.000000
   23       30.684239     30.684243   0.000000   0.000000
   24       30.684239     30.684243   0.000000   0.000000
   25       30.760511     30.760511   0.000000   0.000000
   26       30.760511     30.760511   0.000000   0.000000
   27       31.575975     31.575971   0.000000   0.000000
   28       31.575975     31.575971   0.000000   0.000000
   29       37.311262     37.311268   0.000000   0.000000
   30       37.311262     37.311269   0.000000   0.000000
   31       39.197258     39.197261   0.000000   0.000000
   32       39.197258     39.197261   0.000000   0.000000
   33       41.250959     41.250962   0.000000   0.000000
   34       41.250959     41.250962   0.000000   0.000000
   35       43.113262     43.113261   0.000000   0.000000
   36       43.113262     43.113261   0.000000   0.000000
   37       46.046336     46.046332   0.000000   0.000000
   38       46.046337     46.046332   0.000000   0.000000
   39       46.998119     46.998114   0.000000   0.000000
   40       46.998121     46.998114   0.000000   0.000000
   41       49.279823     49.279830   0.000000   0.000000
   42       49.279873     49.279831   0.000000   0.000000
   43       49.465038     49.465037   0.000000   0.000000
   44       49.465085     49.465037   0.000000   0.000000
   45       50.687699     50.687701   0.000000   0.000000
   46       50.687866     50.687715   0.000000   0.000000
   47       53.187050     53.186919   0.000000   0.000000
   48       53.191128     53.188116   0.000000   0.000000
   49       56.866505     56.869642   0.000000   0.000000
   50       56.888800     56.918638   0.000000   0.000000
   51       56.910053     56.936047   0.000000   0.000000
   52       57.980445     57.031590   0.000000   0.000000
   53       58.332983     58.229267   0.000000   0.000000
   54       59.671052     59.691813   0.000000   0.000000
 
  0.5000000E+00  0.5000000E+00  0.5000000E+00  0.0000000E+00
    1       -8.242863     -8.242864   1.000000   1.000000
    2       -4.809335     -4.809336   1.000000   1.000000
    3        1.992704      1.992706   1.000000   1.000000
    4        2.001412      2.001418   1.000000   1.000000
    5        4.465222      4.465214   0.000000   0.000000
    6        7.997797      7.997898   0.000000   0.000000
    7        8.000806      8.000710   0.000000   0.000000
    8       11.493920     11.493918   0.000000   0.000000
    9       15.257402     15.257495   0.000000   0.000000
   10       15.842713     15.842690   0.000000   0.000000
   11       15.877851     15.878338   0.000000   0.000000
   12       16.211685     16.211744   0.000000   0.000000
   13       16.623895     16.623298   0.000000   0.000000
   14       16.665911     16.665904   0.000000   0.000000
   15       23.609143     23.609683   0.000000   0.000000
   16       24.738075     24.738327   0.000000   0.000000
   17       26.280242     26.280882   0.000000   0.000000
   18       26.297130     26.296418   0.000000   0.000000
   19       26.311404     26.313414   0.000000   0.000000
   20       26.323546     26.322670   0.000000   0.000000
   21       29.542928     29.543096   0.000000   0.000000
   22       30.755215     30.754658   0.000000   0.000000
   23       31.280512     31.270222   0.000000   0.000000
   24       31.513735     31.467709   0.000000   0.000000
   25       32.311228     32.293225   0.000000   0.000000
   26       32.475149     32.512910   0.000000   0.000000
   27       33.219979     33.049977   0.000000   0.000000
   28       36.172239     36.180906   0.000000   0.000000
   29       36.273475     36.283260   0.000000   0.000000
   30       36.815523     36.816252   0.000000   0.000000
   31       36.874763     36.910470   0.000000   0.000000
   32       37.224023     37.171166   0.000000   0.000000
   33       38.878140     39.572972   0.000000   0.000000
   34       41.595619     41.100418   0.000000   0.000000
   35       43.617285     43.504142   0.000000   0.000000
   36       45.101137     44.796499   0.000000   0.000000
   37       45.872743     44.951295   0.000000   0.000000
   38       49.065205     48.808164   0.000000   0.000000
   39       49.162138     49.097075   0.000000   0.000000
   40       49.975738     50.110746   0.000000   0.000000
   41       52.524699     52.561638   0.000000   0.000000
   42       54.007540     52.696816   0.000000   0.000000
   43       54.409081     53.933417   0.000000   0.000000
   44       55.943380     55.270267   0.000000   0.000000
   45       56.636167     55.444600   0.000000   0.000000
   46       57.058715     56.317862   0.000000   0.000000
   47       60.265354     60.981088   0.000000   0.000000
   48       62.146977     61.007666   0.000000   0.000000
   49       62.578368     61.469007   0.000000   0.000000
   50       65.895641     64.518098   0.000000   0.000000
   51       66.953929     66.918715   0.000000   0.000000
   52       67.125865     69.853721   0.000000   0.000000
   53       73.223346     71.807248   0.000000   0.000000
   54       75.110745     79.474529   0.000000   0.000000
 
  0.4897959E+00  0.4897959E+00  0.4897959E+00  0.0000000E+00
    1       -8.248340     -8.248341   1.000000   1.000000
    2       -4.800827     -4.800828   1.000000   1.000000
    3        1.993715      1.993717   1.000000   1.000000
    4        2.002438      2.002443   1.000000   1.000000
    5        4.466157      4.466149   0.000000   0.000000
    6        7.997391      7.997429   0.000000   0.000000
    7        8.002226      8.002194   0.000000   0.000000
    8       11.495432     11.495430   0.000000   0.000000
    9       15.211030     15.211108   0.000000   0.000000
   10       15.788634     15.788591   0.000000   0.000000
   11       15.795603     15.795851   0.000000   0.000000
   12       16.276953     16.277013   0.000000   0.000000
   13       16.692269     16.691912   0.000000   0.000000
   14       16.720409     16.720445   0.000000   0.000000
   15       23.521443     23.521860   0.000000   0.000000
   16       24.830209     24.830669   0.000000   0.000000
   17       25.997274     25.997264   0.000000   0.000000