       N       E                     dE             d eps       ncg     rms          ort
SDA:   1    -0.103870698133E+02   -0.10387E+02   -0.42887E-01  6048   0.107E+00 0.000E+00
DMP:   2    -0.104233108554E+02   -0.36241E-01   -0.31666E-01  6048   0.512E-01 0.732E-01
DMP:   3    -0.104472596247E+02   -0.23949E-01   -0.13580E-01  6048   0.179E-01 0.421E-01
DMP:   4    -0.104576136259E+02   -0.10354E-01   -0.59761E-02  6048   0.806E-02 0.180E-01
DMP:   5    -0.104624367674E+02   -0.48231E-02   -0.32729E-02  6048   0.465E-02 0.926E-02
DMP:   6    -0.104651961591E+02   -0.27594E-02   -0.18827E-02  6048   0.255E-02 0.565E-02
DMP:   7    -0.104667667637E+02   -0.15706E-02   -0.95314E-03  6048   0.118E-02 0.316E-02
DMP:   8    -0.104676817658E+02   -0.91500E-03   -0.43549E-03  6048   0.509E-03 0.152E-02
DMP:   9    -0.104680389024E+02   -0.35714E-03   -0.20194E-03  6048   0.238E-03 0.698E-03
DMP:  10    -0.104680710727E+02   -0.32170E-04   -0.97269E-04  6048   0.115E-03 0.336E-03
   1 F= -.10468071E+02 E0= -.10468116E+02  d E =0.135888E-03
