       N       E                     dE             d eps       ncg     rms          ort
SDA:   1    -0.103877972545E+02   -0.10388E+02   -0.43941E-01  5832   0.110E+00 0.000E+00
DMP:   2    -0.104237202570E+02   -0.35923E-01   -0.30931E-01  5832   0.499E-01 0.719E-01
DMP:   3    -0.104475338165E+02   -0.23814E-01   -0.13541E-01  5832   0.178E-01 0.420E-01
DMP:   4    -0.104578451652E+02   -0.10311E-01   -0.59324E-02  5832   0.800E-02 0.179E-01
DMP:   5    -0.104626281933E+02   -0.47830E-02   -0.32439E-02  5832   0.461E-02 0.917E-02
DMP:   6    -0.104653621833E+02   -0.27340E-02   -0.18673E-02  5832   0.253E-02 0.559E-02
DMP:   7    -0.104669196431E+02   -0.15575E-02   -0.94604E-03  5832   0.117E-02 0.313E-02
DMP:   8    -0.104676927016E+02   -0.77306E-03   -0.43210E-03  5832   0.506E-03 0.150E-02
DMP:   9    -0.104680468425E+02   -0.35414E-03   -0.20008E-03  5832   0.236E-03 0.692E-03
DMP:  10    -0.104682132432E+02   -0.16640E-03   -0.96279E-04  5832   0.114E-03 0.332E-03
DMP:  11    -0.104682937108E+02   -0.80468E-04   -0.45799E-04  5832   0.527E-04 0.162E-03
   1 F= -.10468294E+02 E0= -.10468294E+02  d E =-.155387E-38  mag=    -0.0000
