 vasp.5.4.4.18Apr17-6-g9f103f2a35 (build Sep 10 2021 22:26:18) complex          
  
 executed on             LinuxIFC date 2022.02.18  01:34:24
 running on   54 total cores
 distrk:  each k-point on    9 cores,    6 groups
 distr:  one band on NCORES_PER_BAND=   3 cores,    3 groups


--------------------------------------------------------------------------------------------------------


 INCAR:
 POTCAR:    PAW_PBE Ge 05Jan2001                  

 ----------------------------------------------------------------------------- 
|                                                                             |
|           W    W    AA    RRRRR   N    N  II  N    N   GGGG   !!!           |
|           W    W   A  A   R    R  NN   N  II  NN   N  G    G  !!!           |
|           W    W  A    A  R    R  N N  N  II  N N  N  G       !!!           |
|           W WW W  AAAAAA  RRRRR   N  N N  II  N  N N  G  GGG   !            |
|           WW  WW  A    A  R   R   N   NN  II  N   NN  G    G                |
|           W    W  A    A  R    R  N    N  II  N    N   GGGG   !!!           |
|                                                                             |
|      For optimal performance we recommend to set                            |
|        NCORE= 4 - approx SQRT( number of cores)                             |
|      NCORE specifies how many cores store one orbital (NPAR=cpu/NCORE).     |
|      This setting can  greatly improve the performance of VASP for DFT.     |
|      The default,   NCORE=1            might be grossly inefficient         |
|      on modern multi-core architectures or massively parallel machines.     |
|      Do your own testing !!!!                                               |
|      Unfortunately you need to use the default for GW and RPA calculations. |
|      (for HF NCORE is supported but not extensively tested yet)             |
|                                                                             |
 ----------------------------------------------------------------------------- 


 ----------------------------------------------------------------------------- 
|                                                                             |
|           W    W    AA    RRRRR   N    N  II  N    N   GGGG   !!!           |
|           W    W   A  A   R    R  NN   N  II  NN   N  G    G  !!!           |
|           W    W  A    A  R    R  N N  N  II  N N  N  G       !!!           |
|           W WW W  AAAAAA  RRRRR   N  N N  II  N  N N  G  GGG   !            |
|           WW  WW  A    A  R   R   N   NN  II  N   NN  G    G                |
|           W    W  A    A  R    R  N    N  II  N    N   GGGG   !!!           |
|                                                                             |
|      You have enabled k-point parallelism (KPAR>1).                         |
|      This developmental code was originally  written by Paul Kent at ORNL,  |
|      and carefully double checked in Vienna.                                |
|      GW as well as linear response parallelism added by Martijn Marsman     |
|      and Georg Kresse.                                                      |
|      Carefully verify results versus KPAR=1.                                |
|      Report problems to Paul Kent and Vienna.                               |
|                                                                             |
 ----------------------------------------------------------------------------- 

 POTCAR:    PAW_PBE Ge 05Jan2001                  
   VRHFIN =Ge: s2p2                                                             
   LEXCH  = PE                                                                  
   EATOM  =   104.9960 eV,    7.7170 Ry                                         
                                                                                
   TITEL  = PAW_PBE Ge 05Jan2001                                                
   LULTRA =        F    use ultrasoft PP ?                                      
   IUNSCR =        1    unscreen: 0-lin 1-nonlin 2-no                           
   RPACOR =    2.170    partial core radius                                     
   POMASS =   72.610; ZVAL   =    4.000    mass and valenz                      
   RCORE  =    2.300    outmost cutoff radius                                   
   RWIGS  =    2.300; RWIGS  =    1.217    wigner-seitz radius (au A)           
   ENMAX  =  173.807; ENMIN  =  130.355 eV                                      
   ICORE  =        3    local potential                                         
   LCOR   =        T    correct aug charges                                     
   LPAW   =        T    paw PP                                                  
   EAUG   =  385.843                                                            
   DEXC   =    0.000                                                            
   RMAX   =    2.342    core radius for proj-oper                               
   RAUG   =    1.300    factor for augmentation sphere                          
   RDEP   =    2.318    radius for radial grids                                 
   RDEPT  =    2.103    core radius for aug-charge                              
                                                                                
   Atomic configuration                                                         
   10 entries                                                                   
     n  l   j            E        occ.                                          
     1  0  0.50    -10959.8463   2.0000                                         
     2  0  0.50     -1371.6056   2.0000                                         
     2  1  1.50     -1198.4791   6.0000                                         
     3  0  0.50      -168.4733   2.0000                                         
     3  1  1.50      -115.6019   6.0000                                         
     3  2  2.50       -29.3106  10.0000                                         
     4  0  0.50       -11.7309   2.0000                                         
     4  1  0.50        -3.8952   2.0000                                         
     4  2  1.50        -4.0817   0.0000                                         
     4  3  2.50        -4.0817   0.0000                                         
   Description                                                                  
     l       E           TYP  RCUT    TYP  RCUT                                 
     0    -11.7309493     23  2.300                                             
     0     -7.4578696     23  2.300                                             
     1     -3.8952261     23  2.300                                             
     1      6.1178114     23  2.300                                             
     2     -4.0817478     23  2.300                                             
     3     -1.3605826      7  2.300                                             
  local pseudopotential read in
  partial core-charges read in
  partial kinetic energy density read in
  atomic valenz-charges read in
  non local Contribution for L=           0  read in
    real space projection operators read in
  non local Contribution for L=           0  read in
    real space projection operators read in
  non local Contribution for L=           1  read in
    real space projection operators read in
  non local Contribution for L=           1  read in
    real space projection operators read in
  non local Contribution for L=           2  read in
    real space projection operators read in
    PAW grid and wavefunctions read in
 
   number of l-projection  operators is LMAX  =           5
   number of lm-projection operators is LMMAX =          13
 
  PAW_PBE Ge 05Jan2001                  :
 energy of atom  1       EATOM= -104.9960
 kinetic energy error for atom=    0.0003 (will be added to EATOM!!)
 
 
 POSCAR: Ge                                      
  positions in direct lattice
  No initial velocities read in
 exchange correlation table for  LEXCH =        8
   RHO(1)=    0.500       N(1)  =     2000
   RHO(2)=  100.500       N(2)  =     4000
 


--------------------------------------------------------------------------------------------------------


 ion  position               nearest neighbor table
   1  0.000  0.000  0.000-   2 2.44   2 2.44   2 2.44   2 2.44
   2  0.250  0.250  0.250-   1 2.44   1 2.44   1 2.44   1 2.44
 
  LATTYP: Found a face centered cubic cell.
 ALAT       =     5.6330000000
  
  Lattice vectors:
  
 A1 = (   0.0000000000,   2.8165000000,   2.8165000000)
 A2 = (   2.8165000000,   0.0000000000,   2.8165000000)
 A3 = (   2.8165000000,   2.8165000000,   0.0000000000)


Analysis of symmetry for initial positions (statically):
=====================================================================
 Subroutine PRICEL returns:
 Original cell was already a primitive cell.
 

 Routine SETGRP: Setting up the symmetry group for a 
 face centered cubic supercell.


 Subroutine GETGRP returns: Found 48 space group operations
 (whereof 24 operations were pure point group operations)
 out of a pool of 48 trial point group operations.


The static configuration has the point symmetry T_d .
 The point group associated with its full space group is O_h .


Analysis of symmetry for dynamics (positions and initial velocities):
=====================================================================
 Subroutine PRICEL returns:
 Original cell was already a primitive cell.
 

 Routine SETGRP: Setting up the symmetry group for a 
 face centered cubic supercell.


 Subroutine GETGRP returns: Found 48 space group operations
 (whereof 24 operations were pure point group operations)
 out of a pool of 48 trial point group operations.


The dynamic configuration has the point symmetry T_d .
 The point group associated with its full space group is O_h .


Analysis of structural, dynamic, and magnetic symmetry:
=====================================================================
 Subroutine PRICEL returns:
 Original cell was already a primitive cell.
 

 Routine SETGRP: Setting up the symmetry group for a 
 face centered cubic supercell.


 Subroutine GETGRP returns: Found 48 space group operations
 (whereof 24 operations were pure point group operations)
 out of a pool of 48 trial point group operations.


The magnetic configuration has the point symmetry T_d .
 The point group associated with its full space group is O_h .


 Subroutine INISYM returns: Found 48 space group operations
 (whereof 24 operations are pure point group operations),
 and found     1 'primitive' translations

 
 
 KPOINTS: Automatically generated mesh            
  k-points in reciprocal lattice
Space group operators:
 irot       det(A)        alpha          n_x          n_y          n_z        tau_x        tau_y        tau_z
    1     1.000000     0.000000     1.000000     0.000000     0.000000     0.000000     0.000000     0.000000
    2     1.000000   120.000000    -0.577350    -0.577350    -0.577350     0.000000     0.000000     0.000000
    3     1.000000   120.000000     0.577350     0.577350     0.577350     0.000000     0.000000     0.000000
    4    -1.000000    90.000000     0.000000     0.000000    -1.000000     0.000000     0.000000     0.000000
    5    -1.000000   180.000000     0.000000     0.707107     0.707107     0.000000     0.000000     0.000000
    6    -1.000000    90.000000     0.000000     1.000000     0.000000     0.000000     0.000000     0.000000
    7     1.000000   180.000000     0.000000     0.000000     1.000000     0.000000     0.000000     0.000000
    8     1.000000   120.000000    -0.577350     0.577350     0.577350     0.000000     0.000000     0.000000
    9     1.000000   120.000000    -0.577350     0.577350    -0.577350     0.000000     0.000000     0.000000
   10    -1.000000    90.000000     0.000000     0.000000     1.000000     0.000000     0.000000     0.000000
   11    -1.000000    90.000000    -1.000000     0.000000     0.000000     0.000000     0.000000     0.000000
   12    -1.000000   180.000000     0.707107     0.000000     0.707107     0.000000     0.000000     0.000000
   13     1.000000   120.000000     0.577350    -0.577350     0.577350     0.000000     0.000000     0.000000
   14     1.000000   120.000000    -0.577350    -0.577350     0.577350     0.000000     0.000000     0.000000
   15     1.000000   180.000000     1.000000     0.000000     0.000000     0.000000     0.000000     0.000000
   16    -1.000000    90.000000     0.000000    -1.000000     0.000000     0.000000     0.000000     0.000000
   17    -1.000000   180.000000     0.707107     0.707107     0.000000     0.000000     0.000000     0.000000
   18    -1.000000    90.000000     1.000000     0.000000     0.000000     0.000000     0.000000     0.000000
   19     1.000000   120.000000     0.577350    -0.577350    -0.577350     0.000000     0.000000     0.000000
   20     1.000000   180.000000     0.000000     1.000000     0.000000     0.000000     0.000000     0.000000
   21     1.000000   120.000000     0.577350     0.577350    -0.577350     0.000000     0.000000     0.000000
   22    -1.000000   180.000000     0.000000    -0.707107     0.707107     0.000000     0.000000     0.000000
   23    -1.000000   180.000000     0.707107    -0.707107     0.000000     0.000000     0.000000     0.000000
   24    -1.000000   180.000000     0.707107     0.000000    -0.707107     0.000000     0.000000     0.000000
   25    -1.000000     0.000000     1.000000     0.000000     0.000000     0.250000     0.250000     0.250000
   26    -1.000000   120.000000    -0.577350    -0.577350    -0.577350     0.250000     0.250000     0.250000
   27    -1.000000   120.000000     0.577350     0.577350     0.577350     0.250000     0.250000     0.250000
   28     1.000000    90.000000     0.000000     0.000000    -1.000000     0.250000     0.250000     0.250000
   29     1.000000   180.000000     0.000000     0.707107     0.707107     0.250000     0.250000     0.250000
   30     1.000000    90.000000     0.000000     1.000000     0.000000     0.250000     0.250000     0.250000
   31    -1.000000   180.000000     0.000000     0.000000     1.000000     0.250000     0.250000     0.250000
   32    -1.000000   120.000000    -0.577350     0.577350     0.577350     0.250000     0.250000     0.250000
   33    -1.000000   120.000000    -0.577350     0.577350    -0.577350     0.250000     0.250000     0.250000
   34     1.000000    90.000000     0.000000     0.000000     1.000000     0.250000     0.250000     0.250000
   35     1.000000    90.000000    -1.000000     0.000000     0.000000     0.250000     0.250000     0.250000
   36     1.000000   180.000000     0.707107     0.000000     0.707107     0.250000     0.250000     0.250000
   37    -1.000000   120.000000     0.577350    -0.577350     0.577350     0.250000     0.250000     0.250000
   38    -1.000000   120.000000    -0.577350    -0.577350     0.577350     0.250000     0.250000     0.250000
   39    -1.000000   180.000000     1.000000     0.000000     0.000000     0.250000     0.250000     0.250000
   40     1.000000    90.000000     0.000000    -1.000000     0.000000     0.250000     0.250000     0.250000
   41     1.000000   180.000000     0.707107     0.707107     0.000000     0.250000     0.250000     0.250000
   42     1.000000    90.000000     1.000000     0.000000     0.000000     0.250000     0.250000     0.250000
   43    -1.000000   120.000000     0.577350    -0.577350    -0.577350     0.250000     0.250000     0.250000
   44    -1.000000   180.000000     0.000000     1.000000     0.000000     0.250000     0.250000     0.250000
   45    -1.000000   120.000000     0.577350     0.577350    -0.577350     0.250000     0.250000     0.250000
   46     1.000000   180.000000     0.000000    -0.707107     0.707107     0.250000     0.250000     0.250000
   47     1.000000   180.000000     0.707107    -0.707107     0.000000     0.250000     0.250000     0.250000
   48     1.000000   180.000000     0.707107     0.000000    -0.707107     0.250000     0.250000     0.250000

 ----------------------------------------------------------------------------- 
|                                                                             |
|           W    W    AA    RRRRR   N    N  II  N    N   GGGG   !!!           |
|           W    W   A  A   R    R  NN   N  II  NN   N  G    G  !!!           |
|           W    W  A    A  R    R  N N  N  II  N N  N  G       !!!           |
|           W WW W  AAAAAA  RRRRR   N  N N  II  N  N N  G  GGG   !            |
|           WW  WW  A    A  R   R   N   NN  II  N   NN  G    G                |
|           W    W  A    A  R    R  N    N  II  N    N   GGGG   !!!           |
|                                                                             |
|      Your generating k-point grid is not commensurate to the symmetry       |
|      of the lattice.  This can cause   slow convergence with respect        |
|      to k-points for HF type calculations                                   |
|      suggested SOLUTIONS:                                                   |
|       ) if not already the case, use automatic k-point generation           |
|       ) shift your grid to Gamma (G) (e.g. required for hex or fcc lattice) |
|                                                                             |
 ----------------------------------------------------------------------------- 

 
 Subroutine IBZKPT_HF returns following result:
 ==============================================
 
 Found    164 k-points in 1st BZ
 the following    164 k-points will be used (e.g. in the exchange kernel)
 Following reciprocal coordinates:   # in IRBZ
  0.000000  0.000000  0.000000    0.01562500   1 t-inv F
  0.250000  0.000000  0.000000    0.01562500   2 t-inv F
  0.500000  0.000000  0.000000    0.01562500   3 t-inv F
  0.250000  0.250000  0.000000    0.01562500   4 t-inv F
  0.500000  0.250000  0.000000    0.01562500   5 t-inv F
 -0.250000  0.250000  0.000000    0.01562500   6 t-inv F
  0.500000  0.500000  0.000000    0.01562500   7 t-inv F
 -0.250000  0.500000  0.250000    0.01562500   8 t-inv F
  0.500000  0.500000  0.500000    0.00000000   9 t-inv F
  0.489796  0.489796  0.489796    0.00000000  10 t-inv F
  0.479592  0.479592  0.479592    0.00000000  11 t-inv F
  0.469388  0.469388  0.469388    0.00000000  12 t-inv F
  0.459184  0.459184  0.459184    0.00000000  13 t-inv F
  0.448980  0.448980  0.448980    0.00000000  14 t-inv F
  0.438776  0.438776  0.438776    0.00000000  15 t-inv F
  0.428571  0.428571  0.428571    0.00000000  16 t-inv F
  0.418367  0.418367  0.418367    0.00000000  17 t-inv F
  0.408163  0.408163  0.408163    0.00000000  18 t-inv F
  0.397959  0.397959  0.397959    0.00000000  19 t-inv F
  0.387755  0.387755  0.387755    0.00000000  20 t-inv F
  0.377551  0.377551  0.377551    0.00000000  21 t-inv F
  0.367347  0.367347  0.367347    0.00000000  22 t-inv F
  0.357143  0.357143  0.357143    0.00000000  23 t-inv F
  0.346939  0.346939  0.346939    0.00000000  24 t-inv F
  0.336735  0.336735  0.336735    0.00000000  25 t-inv F
  0.326531  0.326531  0.326531    0.00000000  26 t-inv F
  0.316327  0.316327  0.316327    0.00000000  27 t-inv F
  0.306122  0.306122  0.306122    0.00000000  28 t-inv F
  0.295918  0.295918  0.295918    0.00000000  29 t-inv F
  0.285714  0.285714  0.285714    0.00000000  30 t-inv F
  0.275510  0.275510  0.275510    0.00000000  31 t-inv F
  0.265306  0.265306  0.265306    0.00000000  32 t-inv F
  0.255102  0.255102  0.255102    0.00000000  33 t-inv F
  0.244898  0.244898  0.244898    0.00000000  34 t-inv F
  0.234694  0.234694  0.234694    0.00000000  35 t-inv F
  0.224490  0.224490  0.224490    0.00000000  36 t-inv F
  0.214286  0.214286  0.214286    0.00000000  37 t-inv F
  0.204082  0.204082  0.204082    0.00000000  38 t-inv F
  0.193878  0.193878  0.193878    0.00000000  39 t-inv F
  0.183673  0.183673  0.183673    0.00000000  40 t-inv F
  0.173469  0.173469  0.173469    0.00000000  41 t-inv F
  0.163265  0.163265  0.163265    0.00000000  42 t-inv F
  0.153061  0.153061  0.153061    0.00000000  43 t-inv F
  0.142857  0.142857  0.142857    0.00000000  44 t-inv F
  0.132653  0.132653  0.132653    0.00000000  45 t-inv F
  0.122449  0.122449  0.122449    0.00000000  46 t-inv F
  0.112245  0.112245  0.112245    0.00000000  47 t-inv F
  0.102041  0.102041  0.102041    0.00000000  48 t-inv F
  0.091837  0.091837  0.091837    0.00000000  49 t-inv F
  0.081633  0.081633  0.081633    0.00000000  50 t-inv F
  0.071429  0.071429  0.071429    0.00000000  51 t-inv F
  0.061224  0.061224  0.061224    0.00000000  52 t-inv F
  0.051020  0.051020  0.051020    0.00000000  53 t-inv F
  0.040816  0.040816  0.040816    0.00000000  54 t-inv F
  0.030612  0.030612  0.030612    0.00000000  55 t-inv F
  0.020408  0.020408  0.020408    0.00000000  56 t-inv F
  0.010204  0.010204  0.010204    0.00000000  57 t-inv F
  0.000000  0.000000  0.000000    0.00000000  58 t-inv F
  0.000000  0.000000  0.000000    0.00000000  59 t-inv F
  0.010204  0.000000  0.010204    0.00000000  60 t-inv F
  0.020408  0.000000  0.020408    0.00000000  61 t-inv F
  0.030612  0.000000  0.030612    0.00000000  62 t-inv F
  0.040816  0.000000  0.040816    0.00000000  63 t-inv F
  0.051020  0.000000  0.051020    0.00000000  64 t-inv F
  0.061224  0.000000  0.061224    0.00000000  65 t-inv F
  0.071429  0.000000  0.071429    0.00000000  66 t-inv F
  0.081633  0.000000  0.081633    0.00000000  67 t-inv F
  0.091837  0.000000  0.091837    0.00000000  68 t-inv F
  0.102041  0.000000  0.102041    0.00000000  69 t-inv F
  0.112245  0.000000  0.112245    0.00000000  70 t-inv F
  0.122449  0.000000  0.122449    0.00000000  71 t-inv F
  0.132653  0.000000  0.132653    0.00000000  72 t-inv F
  0.142857  0.000000  0.142857    0.00000000  73 t-inv F
  0.153061  0.000000  0.153061    0.00000000  74 t-inv F
  0.163265  0.000000  0.163265    0.00000000  75 t-inv F
  0.173469  0.000000  0.173469    0.00000000  76 t-inv F
  0.183673  0.000000  0.183673    0.00000000  77 t-inv F
  0.193878  0.000000  0.193878    0.00000000  78 t-inv F
  0.204082  0.000000  0.204082    0.00000000  79 t-inv F
  0.214286  0.000000  0.214286    0.00000000  80 t-inv F
  0.224490  0.000000  0.224490    0.00000000  81 t-inv F
  0.234694  0.000000  0.234694    0.00000000  82 t-inv F
  0.244898  0.000000  0.244898    0.00000000  83 t-inv F
  0.255102  0.000000  0.255102    0.00000000  84 t-inv F
  0.265306  0.000000  0.265306    0.00000000  85 t-inv F
  0.275510  0.000000  0.275510    0.00000000  86 t-inv F
  0.285714  0.000000  0.285714    0.00000000  87 t-inv F
  0.295918  0.000000  0.295918    0.00000000  88 t-inv F
  0.306122  0.000000  0.306122    0.00000000  89 t-inv F
  0.316327  0.000000  0.316327    0.00000000  90 t-inv F
  0.326531  0.000000  0.326531    0.00000000  91 t-inv F
  0.336735  0.000000  0.336735    0.00000000  92 t-inv F
  0.346939  0.000000  0.346939    0.00000000  93 t-inv F
  0.357143  0.000000  0.357143    0.00000000  94 t-inv F
  0.367347  0.000000  0.367347    0.00000000  95 t-inv F
  0.377551  0.000000  0.377551    0.00000000  96 t-inv F
  0.387755  0.000000  0.387755    0.00000000  97 t-inv F
  0.397959  0.000000  0.397959    0.00000000  98 t-inv F
  0.408163  0.000000  0.408163    0.00000000  99 t-inv F
  0.418367  0.000000  0.418367    0.00000000 100 t-inv F
  0.428571  0.000000  0.428571    0.00000000 101 t-inv F
  0.438776  0.000000  0.438776    0.00000000 102 t-inv F
  0.448980  0.000000  0.448980    0.00000000 103 t-inv F
  0.459184  0.000000  0.459184    0.00000000 104 t-inv F
  0.469388  0.000000  0.469388    0.00000000 105 t-inv F
  0.479592  0.000000  0.479592    0.00000000 106 t-inv F
  0.489796  0.000000  0.489796    0.00000000 107 t-inv F
  0.500000  0.000000  0.500000    0.00000000 108 t-inv F
  0.000000  0.250000  0.000000    0.01562500   2 t-inv F
  0.000000  0.000000  0.250000    0.01562500   2 t-inv F
 -0.250000 -0.250000 -0.250000    0.01562500   2 t-inv F
 -0.250000  0.000000  0.000000    0.01562500   2 t-inv F
  0.000000 -0.250000  0.000000    0.01562500   2 t-inv F
  0.000000  0.000000 -0.250000    0.01562500   2 t-inv F
  0.250000  0.250000  0.250000    0.01562500   2 t-inv F
  0.000000  0.500000  0.000000    0.01562500   3 t-inv F
  0.000000  0.000000  0.500000    0.01562500   3 t-inv F
 -0.500000 -0.500000 -0.500000    0.01562500   3 t-inv F
  0.000000  0.250000  0.250000    0.01562500   4 t-inv F
  0.250000  0.000000  0.250000    0.01562500   4 t-inv F
 -0.250000 -0.250000  0.000000    0.01562500   4 t-inv F
 -0.250000  0.000000 -0.250000    0.01562500   4 t-inv F
  0.000000 -0.250000 -0.250000    0.01562500   4 t-inv F
  0.000000  0.500000  0.250000    0.01562500   5 t-inv F
  0.250000  0.000000  0.500000    0.01562500   5 t-inv F
 -0.250000 -0.250000  0.250000    0.01562500   5 t-inv F
 -0.500000 -0.250000 -0.500000    0.01562500   5 t-inv F
  0.250000  0.500000  0.000000    0.01562500   5 t-inv F
  0.250000 -0.250000 -0.250000    0.01562500   5 t-inv F
 -0.500000 -0.500000 -0.250000    0.01562500   5 t-inv F
  0.000000  0.250000  0.500000    0.01562500   5 t-inv F
 -0.250000  0.250000 -0.250000    0.01562500   5 t-inv F
 -0.250000 -0.500000 -0.500000    0.01562500   5 t-inv F
  0.500000  0.000000  0.250000    0.01562500   5 t-inv F
 -0.500000 -0.250000  0.000000    0.01562500   5 t-inv F
  0.000000 -0.500000 -0.250000    0.01562500   5 t-inv F
 -0.250000  0.000000 -0.500000    0.01562500   5 t-inv F
  0.250000  0.250000 -0.250000    0.01562500   5 t-inv F
  0.500000  0.250000  0.500000    0.01562500   5 t-inv F
 -0.250000 -0.500000  0.000000    0.01562500   5 t-inv F
 -0.250000  0.250000  0.250000    0.01562500   5 t-inv F
  0.500000  0.500000  0.250000    0.01562500   5 t-inv F
  0.000000 -0.250000 -0.500000    0.01562500   5 t-inv F
  0.250000 -0.250000  0.250000    0.01562500   5 t-inv F
  0.250000  0.500000  0.500000    0.01562500   5 t-inv F
 -0.500000  0.000000 -0.250000    0.01562500   5 t-inv F
  0.000000 -0.250000  0.250000    0.01562500   6 t-inv F
  0.250000  0.000000 -0.250000    0.01562500   6 t-inv F
 -0.250000 -0.250000 -0.500000    0.01562500   6 t-inv F
  0.250000  0.500000  0.250000    0.01562500   6 t-inv F
  0.250000 -0.250000  0.000000    0.01562500   6 t-inv F
 -0.500000 -0.250000 -0.250000    0.01562500   6 t-inv F
  0.250000  0.250000  0.500000    0.01562500   6 t-inv F
  0.000000  0.250000 -0.250000    0.01562500   6 t-inv F
 -0.250000 -0.500000 -0.250000    0.01562500   6 t-inv F
  0.500000  0.250000  0.250000    0.01562500   6 t-inv F
 -0.250000  0.000000  0.250000    0.01562500   6 t-inv F
  0.000000  0.500000  0.500000    0.01562500   7 t-inv F
  0.500000  0.000000  0.500000    0.01562500   7 t-inv F
  0.250000 -0.250000  0.500000    0.01562500   8 t-inv F
  0.500000  0.250000 -0.250000    0.01562500   8 t-inv F
 -0.500000 -0.250000 -0.750000    0.01562500   8 t-inv F
  0.250000 -0.500000 -0.250000    0.01562500   8 t-inv F
 -0.250000  0.250000 -0.500000    0.01562500   8 t-inv F


--------------------------------------------------------------------------------------------------------




 Dimension of arrays:
   k-points           NKPTS =    108   k-points in BZ     NKDIM =    164   number of bands    NBANDS=     54
   number of dos      NEDOS =    301   number of ions     NIONS =      2
   non local maximal  LDIM  =      5   non local SUM 2l+1 LMDIM =     13
   total plane-waves  NPLWV =  13824
   max r-space proj   IRMAX =      1   max aug-charges    IRDMAX=  17012
   dimension x,y,z NGX =    24 NGY =   24 NGZ =   24
   dimension x,y,z NGXF=    48 NGYF=   48 NGZF=   48
   support grid    NGXF=    48 NGYF=   48 NGZF=   48
   ions per type =               2
   NGX,Y,Z   is equivalent  to a cutoff of  10.02, 10.02, 10.02 a.u.
   NGXF,Y,Z  is equivalent  to a cutoff of  20.03, 20.03, 20.03 a.u.

 SYSTEM =  unknown system                          
 POSCAR =  Ge                                      

 Startparameter for this run:
   NWRITE =      2    write-flag & timer
   PREC   = n         normal or accurate (medium, high low for compatibility)
   ISTART =      1    job   : 0-new  1-cont  2-samecut
   ICHARG =     11    charge: 1-file 2-atom 10-const
   ISPIN  =      2    spin polarized calculation?
   LNONCOLLINEAR =      F non collinear calculations
   LSORBIT =      F    spin-orbit coupling
   INIWAV =      1    electr: 0-lowe 1-rand  2-diag
   LASPH  =      F    aspherical Exc in radial PAW
   METAGGA=      F    non-selfconsistent MetaGGA calc.

 Electronic Relaxation 1
   ENCUT  =  450.0 eV  33.07 Ry    5.75 a.u.   6.89  6.89  6.89*2*pi/ulx,y,z
   ENINI  =  450.0     initial cutoff
   ENAUG  =  385.8 eV  augmentation charge cutoff
   NELM   =     60;   NELMIN=  2; NELMDL=  0     # of ELM steps 
   EDIFF  = 0.1E-03   stopping-criterion for ELM
   LREAL  =      F    real-space projection
   NLSPLINE    = F    spline interpolate recip. space projectors
   LCOMPAT=      F    compatible to vasp.4.4
   GGA_COMPAT  = T    GGA compatible to vasp.4.4-vasp.4.6
   LMAXPAW     = -100 max onsite density
   LMAXMIX     =    2 max onsite mixed and CHGCAR
   VOSKOWN=      0    Vosko Wilk Nusair interpolation
   ROPT   =    0.00000
 Ionic relaxation
   EDIFFG = 0.1E-02   stopping-criterion for IOM
   NSW    =      0    number of steps for IOM
   NBLOCK =      1;   KBLOCK =      1    inner block; outer block 
   IBRION =     -1    ionic relax: 0-MD 1-quasi-New 2-CG
   NFREE  =      0    steps in history (QN), initial steepest desc. (CG)
   ISIF   =      0    stress and relaxation
   IWAVPR =     10    prediction:  0-non 1-charg 2-wave 3-comb
   ISYM   =      3    0-nonsym 1-usesym 2-fastsym
   LCORR  =      T    Harris-Foulkes like correction to forces

   POTIM  = 0.5000    time-step for ionic-motion
   TEIN   =    0.0    initial temperature
   TEBEG  =    0.0;   TEEND  =   0.0 temperature during run
   SMASS  =  -3.00    Nose mass-parameter (am)
   estimated Nose-frequenzy (Omega)   =  0.10E-29 period in steps =****** mass=  -0.363E-27a.u.
   SCALEE = 1.0000    scale energy and forces
   NPACO  =    256;   APACO  = 16.0  distance and # of slots for P.C.
   PSTRESS=    0.0 pullay stress

  Mass of Ions in am
   POMASS =  72.61
  Ionic Valenz
   ZVAL   =   4.00
  Atomic Wigner-Seitz radii
   RWIGS  =  -1.00
  virtual crystal weights 
   VCA    =   1.00
   NELECT =       8.0000    total number of electrons
   NUPDOWN=      -1.0000    fix difference up-down

 DOS related values:
   EMIN   =  10.00;   EMAX   =-10.00  energy-range for DOS
   EFERMI =   0.00
   ISMEAR =     0;   SIGMA  =   0.05  broadening in eV -4-tet -1-fermi 0-gaus

 Electronic relaxation 2 (details)
   IALGO  =     53    algorithm
   LDIAG  =      T    sub-space diagonalisation (order eigenvalues)
   LSUBROT=      F    optimize rotation matrix (better conditioning)
   TURBO    =      0    0=normal 1=particle mesh
   IRESTART =      0    0=no restart 2=restart with 2 vectors
   NREBOOT  =      0    no. of reboots
   NMIN     =      0    reboot dimension
   EREF     =   0.00    reference energy to select bands
   IMIX   =      4    mixing-type and parameters
     AMIX     =   0.40;   BMIX     =  1.00
     AMIX_MAG =   1.60;   BMIX_MAG =  1.00
     AMIN     =   0.10
     WC   =   100.;   INIMIX=   1;  MIXPRE=   1;  MAXMIX= -45

 Intra band minimization:
   WEIMIN = 0.0000     energy-eigenvalue tresh-hold
   EBREAK =  0.46E-06  absolut break condition
   DEPER  =   0.30     relativ break condition  

   TIME   =   0.40     timestep for ELM

  volume/ion in A,a.u.               =      22.34       150.77
  Fermi-wavevector in a.u.,A,eV,Ry     =   0.922681  1.743615 11.583196  0.851341
  Thomas-Fermi vector in A             =   2.048235
 
 Write flags
   LWAVE        =      F    write WAVECAR
   LDOWNSAMPLE  =      F    k-point downsampling of WAVECAR
   LCHARG       =      F    write CHGCAR
   LVTOT        =      F    write LOCPOT, total local potential
   LVHAR        =      F    write LOCPOT, Hartree potential only
   LELF         =      F    write electronic localiz. function (ELF)
   LORBIT       =      0    0 simple, 1 ext, 2 COOP (PROOUT), +10 PAW based schemes


 Dipole corrections
   LMONO  =      F    monopole corrections only (constant potential shift)
   LDIPOL =      F    correct potential (dipole corrections)
   IDIPOL =      0    1-x, 2-y, 3-z, 4-all directions 
   EPSILON=  1.0000000 bulk dielectric constant

 Exchange correlation treatment:
   GGA     =    PE    GGA type
   LEXCH   =     8    internal setting for exchange type
   VOSKOWN=      0    Vosko Wilk Nusair interpolation
   EXXOEP  =     0    0=HF, 1=EXX-LHF (local Hartree Fock) 2=EXX OEP
   LHFCALC =     T    Hartree Fock is set to
   LSYMGRAD=     F    symmetrize gradient (conserves proper symmetry)
   PRECFOCK=normal    Normal, Fast or Accurate (Low or Medium for compatibility)
   LRHFCALC=     F    long range Hartree Fock
   LRSCOR  =     F    long range correlation only (use DFT for short range part)
   LTHOMAS =     F    Thomas Fermi screening in HF
   LMODELHF=     F    short range full HF, long range fraction AEXX
   ENCUT4O =  -1.0   cutoff for four orbital integrals eV
   LMAXFOCK=     4    L truncation for augmentation on plane wave grid
   LMAXFOCKAE=  -1    L truncation for all-electron charge restoration on plane wave grid
   NMAXFOCKAE=   1    number of basis functions for all-electron charge restoration
   LFOCKAEDFT=     F  apply the AE augmentation even for DFT
   NKREDX  =     1    reduce k-point grid by
   NKREDY  =     1    reduce k-point grid by
   NKREDZ  =     1    reduce k-point grid by
   SHIFTRED=     F    shift reduced grid of Gamma
   HFKIDENT=     F    idential grid for each k-point
   ODDONLY =     F    use only odd q-grid points
   EVENONLY=     F    use only even q-grid points
   HFALPHA =   -1.0000 decay constant for conv. correction
   MCALPHA =    0.0000 extent of test-charge in conv. correction in multipole expansion
   AEXX    =    0.2500 exact exchange contribution
   HFSCREEN=    0.2000 screening length (either q_TF or 0.3 A-1)
   HFSCREENC=   0.2000 screening length for correlation (either q_TF or 0.3 A-1)
   HFRCUT  =    0.0000 spherical cutoff for potential kernel
   ALDAX   =    0.7500 LDA exchange part
   AGGAX   =    0.7500 GGA exchange part
   ALDAC   =    1.0000 LDA correlation
   AGGAC   =    1.0000 GGA correlation
   ENCUTFOCK=  -1.0 apply spherical cutoff to Coloumb kernel
   NBANDSGWLOW=     1    first orbital included in HF term
   NBLOCK_FOCK=    64    blocking factor in FOCK_ACC
 Linear response parameters
   LEPSILON=     F    determine dielectric tensor
   LRPA    =     F    only Hartree local field effects (RPA)
   LNABLA  =     F    use nabla operator in PAW spheres
   LVEL    =     F    velocity operator in full k-point grid
   LINTERFAST=   F  fast interpolation
   KINTER  =     0    interpolate to denser k-point grid
   CSHIFT  =0.1000    complex shift for real part using Kramers Kronig
   OMEGAMAX=  -1.0    maximum frequency
   DEG_THRESHOLD= 0.2000000E-02 threshold for treating states as degnerate
   RTIME   =   -0.100 relaxation time in fs
  (WPLASMAI=    0.000 imaginary part of plasma frequency in eV, 0.658/RTIME)
   DFIELD  = 0.0000000 0.0000000 0.0000000 field for delta impulse in time
 
 Orbital magnetization related:
   ORBITALMAG=     F  switch on orbital magnetization
   LCHIMAG   =     F  perturbation theory with respect to B field
   DQ        =  0.001000  dq finite difference perturbation B field
   LLRAUG    =     F  two centre corrections for induced B field



--------------------------------------------------------------------------------------------------------


 Static calculation
 charge density and potential remain constant during run
 spin polarized calculation
 Conjugate gradient for all bands (Freysoldt, et al. PRB 79, 241103 (2009))
 perform sub-space diagonalisation
    before iterative eigenvector-optimisation
 no mixing
 using additional bands           50
 reciprocal scheme for non local part
 use partial core corrections
 calculate Harris-corrections to forces 
   (improved forces if not selfconsistent)
 use gradient corrections 
 WARNING: stress and forces are not correct
  (second derivative of E(xc) not defined)
 use of overlap-Matrix (Vanderbilt PP)
 Gauss-broadening in eV      SIGMA  =   0.05


--------------------------------------------------------------------------------------------------------


  energy-cutoff  :      450.00
  volume of cell :       44.68
      direct lattice vectors                 reciprocal lattice vectors
     0.000000000  2.816500000  2.816500000    -0.177525297  0.177525297  0.177525297
     2.816500000  0.000000000  2.816500000     0.177525297 -0.177525297  0.177525297
     2.816500000  2.816500000  0.000000000     0.177525297  0.177525297 -0.177525297

  length of vectors
     3.983132498  3.983132498  3.983132498     0.307482835  0.307482835  0.307482835


 
 old parameters found on file WAVECAR:
  energy-cutoff  :      450.00
  volume of cell :       44.68
      direct lattice vectors                 reciprocal lattice vectors
     0.000000000  2.816500000  2.816500000    -0.177525297  0.177525297  0.177525297
     2.816500000  0.000000000  2.816500000     0.177525297 -0.177525297  0.177525297
     2.816500000  2.816500000  0.000000000     0.177525297  0.177525297 -0.177525297

  length of vectors

 
 k-points in units of 2pi/SCALE and weight: Automatically generated mesh            
   0.00000000  0.00000000  0.00000000       0.016
  -0.04438132  0.04438132  0.04438132       0.125
  -0.08876265  0.08876265  0.08876265       0.062
   0.00000000  0.00000000  0.08876265       0.094
  -0.04438132  0.04438132  0.13314397       0.375
   0.08876265 -0.08876265  0.00000000       0.188
   0.00000000  0.00000000  0.17752530       0.047
   0.17752530 -0.08876265  0.00000000       0.094
   0.08876265  0.08876265  0.08876265       0.000
   0.08695117  0.08695117  0.08695117       0.000
   0.08513968  0.08513968  0.08513968       0.000
   0.08332820  0.08332820  0.08332820       0.000
   0.08151672  0.08151672  0.08151672       0.000
   0.07970524  0.07970524  0.07970524       0.000
   0.07789375  0.07789375  0.07789375       0.000
   0.07608227  0.07608227  0.07608227       0.000
   0.07427079  0.07427079  0.07427079       0.000
   0.07245931  0.07245931  0.07245931       0.000
   0.07064782  0.07064782  0.07064782       0.000
   0.06883634  0.06883634  0.06883634       0.000
   0.06702486  0.06702486  0.06702486       0.000
   0.06521337  0.06521337  0.06521337       0.000
   0.06340189  0.06340189  0.06340189       0.000
   0.06159041  0.06159041  0.06159041       0.000
   0.05977893  0.05977893  0.05977893       0.000
   0.05796744  0.05796744  0.05796744       0.000
   0.05615596  0.05615596  0.05615596       0.000
   0.05434448  0.05434448  0.05434448       0.000
   0.05253300  0.05253300  0.05253300       0.000
   0.05072151  0.05072151  0.05072151       0.000
   0.04891003  0.04891003  0.04891003       0.000
   0.04709855  0.04709855  0.04709855       0.000
   0.04528707  0.04528707  0.04528707       0.000
   0.04347558  0.04347558  0.04347558       0.000
   0.04166410  0.04166410  0.04166410       0.000
   0.03985262  0.03985262  0.03985262       0.000
   0.03804114  0.03804114  0.03804114       0.000
   0.03622965  0.03622965  0.03622965       0.000
   0.03441817  0.03441817  0.03441817       0.000
   0.03260669  0.03260669  0.03260669       0.000
   0.03079520  0.03079520  0.03079520       0.000
   0.02898372  0.02898372  0.02898372       0.000
   0.02717224  0.02717224  0.02717224       0.000
   0.02536076  0.02536076  0.02536076       0.000
   0.02354927  0.02354927  0.02354927       0.000
   0.02173779  0.02173779  0.02173779       0.000
   0.01992631  0.01992631  0.01992631       0.000
   0.01811483  0.01811483  0.01811483       0.000
   0.01630334  0.01630334  0.01630334       0.000
   0.01449186  0.01449186  0.01449186       0.000
   0.01268038  0.01268038  0.01268038       0.000
   0.01086890  0.01086890  0.01086890       0.000
   0.00905741  0.00905741  0.00905741       0.000
   0.00724593  0.00724593  0.00724593       0.000
   0.00543445  0.00543445  0.00543445       0.000
   0.00362297  0.00362297  0.00362297       0.000
   0.00181148  0.00181148  0.00181148       0.000
   0.00000000  0.00000000  0.00000000       0.000
   0.00000000  0.00000000  0.00000000       0.000
   0.00000000  0.00362297  0.00000000       0.000
   0.00000000  0.00724593  0.00000000       0.000
   0.00000000  0.01086890  0.00000000       0.000
   0.00000000  0.01449186  0.00000000       0.000
   0.00000000  0.01811483  0.00000000       0.000
   0.00000000  0.02173779  0.00000000       0.000
   0.00000000  0.02536076  0.00000000       0.000
   0.00000000  0.02898372  0.00000000       0.000
   0.00000000  0.03260669  0.00000000       0.000
   0.00000000  0.03622965  0.00000000       0.000
   0.00000000  0.03985262  0.00000000       0.000
   0.00000000  0.04347558  0.00000000       0.000
   0.00000000  0.04709855  0.00000000       0.000
   0.00000000  0.05072151  0.00000000       0.000
   0.00000000  0.05434448  0.00000000       0.000
   0.00000000  0.05796744  0.00000000       0.000
   0.00000000  0.06159041  0.00000000       0.000
   0.00000000  0.06521337  0.00000000       0.000
   0.00000000  0.06883634  0.00000000       0.000
   0.00000000  0.07245931  0.00000000       0.000
   0.00000000  0.07608227  0.00000000       0.000
   0.00000000  0.07970524  0.00000000       0.000
   0.00000000  0.08332820  0.00000000       0.000
   0.00000000  0.08695117  0.00000000       0.000
   0.00000000  0.09057413  0.00000000       0.000
   0.00000000  0.09419710  0.00000000       0.000
   0.00000000  0.09782006  0.00000000       0.000
   0.00000000  0.10144303  0.00000000       0.000
   0.00000000  0.10506599  0.00000000       0.000
   0.00000000  0.10868896  0.00000000       0.000
   0.00000000  0.11231192  0.00000000       0.000
   0.00000000  0.11593489  0.00000000       0.000
   0.00000000  0.11955785  0.00000000       0.000
   0.00000000  0.12318082  0.00000000       0.000
   0.00000000  0.12680378  0.00000000       0.000
   0.00000000  0.13042675  0.00000000       0.000
   0.00000000  0.13404971  0.00000000       0.000
   0.00000000  0.13767268  0.00000000       0.000
   0.00000000  0.14129564  0.00000000       0.000
   0.00000000  0.14491861  0.00000000       0.000
   0.00000000  0.14854158  0.00000000       0.000
   0.00000000  0.15216454  0.00000000       0.000
   0.00000000  0.15578751  0.00000000       0.000
   0.00000000  0.15941047  0.00000000       0.000
   0.00000000  0.16303344  0.00000000       0.000
   0.00000000  0.16665640  0.00000000       0.000
   0.00000000  0.17027937  0.00000000       0.000
   0.00000000  0.17390233  0.00000000       0.000
   0.00000000  0.17752530  0.00000000       0.000
 
 k-points in reciprocal lattice and weights: Automatically generated mesh            
   0.00000000  0.00000000  0.00000000       0.016
   0.25000000  0.00000000  0.00000000       0.125
   0.50000000  0.00000000  0.00000000       0.062
   0.25000000  0.25000000  0.00000000       0.094
   0.50000000  0.25000000  0.00000000       0.375
  -0.25000000  0.25000000  0.00000000       0.188
   0.50000000  0.50000000  0.00000000       0.047
  -0.25000000  0.50000000  0.25000000       0.094
   0.50000000  0.50000000  0.50000000       0.000
   0.48979592  0.48979592  0.48979592       0.000
   0.47959184  0.47959184  0.47959184       0.000
   0.46938776  0.46938776  0.46938776       0.000
   0.45918367  0.45918367  0.45918367       0.000
   0.44897959  0.44897959  0.44897959       0.000
   0.43877551  0.43877551  0.43877551       0.000
   0.42857143  0.42857143  0.42857143       0.000
   0.41836735  0.41836735  0.41836735       0.000
   0.40816327  0.40816327  0.40816327       0.000
   0.39795918  0.39795918  0.39795918       0.000
   0.38775510  0.38775510  0.38775510       0.000
   0.37755102  0.37755102  0.37755102       0.000
   0.36734694  0.36734694  0.36734694       0.000
   0.35714286  0.35714286  0.35714286       0.000
   0.34693878  0.34693878  0.34693878       0.000
   0.33673469  0.33673469  0.33673469       0.000
   0.32653061  0.32653061  0.32653061       0.000
   0.31632653  0.31632653  0.31632653       0.000
   0.30612245  0.30612245  0.30612245       0.000
   0.29591837  0.29591837  0.29591837       0.000
   0.28571429  0.28571429  0.28571429       0.000
   0.27551020  0.27551020  0.27551020       0.000
   0.26530612  0.26530612  0.26530612       0.000
   0.25510204  0.25510204  0.25510204       0.000
   0.24489796  0.24489796  0.24489796       0.000
   0.23469388  0.23469388  0.23469388       0.000
   0.22448980  0.22448980  0.22448980       0.000
   0.21428571  0.21428571  0.21428571       0.000
   0.20408163  0.20408163  0.20408163       0.000
   0.19387755  0.19387755  0.19387755       0.000
   0.18367347  0.18367347  0.18367347       0.000
   0.17346939  0.17346939  0.17346939       0.000
   0.16326531  0.16326531  0.16326531       0.000
   0.15306122  0.15306122  0.15306122       0.000
   0.14285714  0.14285714  0.14285714       0.000
   0.13265306  0.13265306  0.13265306       0.000
   0.12244898  0.12244898  0.12244898       0.000
   0.11224490  0.11224490  0.11224490       0.000
   0.10204082  0.10204082  0.10204082       0.000
   0.09183673  0.09183673  0.09183673       0.000
   0.08163265  0.08163265  0.08163265       0.000
   0.07142857  0.07142857  0.07142857       0.000
   0.06122449  0.06122449  0.06122449       0.000
   0.05102041  0.05102041  0.05102041       0.000
   0.04081633  0.04081633  0.04081633       0.000
   0.03061224  0.03061224  0.03061224       0.000
   0.02040816  0.02040816  0.02040816       0.000
   0.01020408  0.01020408  0.01020408       0.000
   0.00000000  0.00000000  0.00000000       0.000
   0.00000000  0.00000000  0.00000000       0.000
   0.01020408  0.00000000  0.01020408       0.000
   0.02040816  0.00000000  0.02040816       0.000
   0.03061224  0.00000000  0.03061224       0.000
   0.04081633  0.00000000  0.04081633       0.000
   0.05102041  0.00000000  0.05102041       0.000
   0.06122449  0.00000000  0.06122449       0.000
   0.07142857  0.00000000  0.07142857       0.000
   0.08163265  0.00000000  0.08163265       0.000
   0.09183673  0.00000000  0.09183673       0.000
   0.10204082  0.00000000  0.10204082       0.000
   0.11224490  0.00000000  0.11224490       0.000
   0.12244898  0.00000000  0.12244898       0.000
   0.13265306  0.00000000  0.13265306       0.000
   0.14285714  0.00000000  0.14285714       0.000
   0.15306122  0.00000000  0.15306122       0.000
   0.16326531  0.00000000  0.16326531       0.000
   0.17346939  0.00000000  0.17346939       0.000
   0.18367347  0.00000000  0.18367347       0.000
   0.19387755  0.00000000  0.19387755       0.000
   0.20408163  0.00000000  0.20408163       0.000
   0.21428571  0.00000000  0.21428571       0.000
   0.22448980  0.00000000  0.22448980       0.000
   0.23469388  0.00000000  0.23469388       0.000
   0.24489796  0.00000000  0.24489796       0.000
   0.25510204  0.00000000  0.25510204       0.000
   0.26530612  0.00000000  0.26530612       0.000
   0.27551020  0.00000000  0.27551020       0.000
   0.28571429  0.00000000  0.28571429       0.000
   0.29591837  0.00000000  0.29591837       0.000
   0.30612245  0.00000000  0.30612245       0.000
   0.31632653  0.00000000  0.31632653       0.000
   0.32653061  0.00000000  0.32653061       0.000
   0.33673469  0.00000000  0.33673469       0.000
   0.34693878  0.00000000  0.34693878       0.000
   0.35714286  0.00000000  0.35714286       0.000
   0.36734694  0.00000000  0.36734694       0.000
   0.37755102  0.00000000  0.37755102       0.000
   0.38775510  0.00000000  0.38775510       0.000
   0.39795918  0.00000000  0.39795918       0.000
   0.40816327  0.00000000  0.40816327       0.000
   0.41836735  0.00000000  0.41836735       0.000
   0.42857143  0.00000000  0.42857143       0.000
   0.43877551  0.00000000  0.43877551       0.000
   0.44897959  0.00000000  0.44897959       0.000
   0.45918367  0.00000000  0.45918367       0.000
   0.46938776  0.00000000  0.46938776       0.000
   0.47959184  0.00000000  0.47959184       0.000
   0.48979592  0.00000000  0.48979592       0.000
   0.50000000  0.00000000  0.50000000       0.000
 
 position of ions in fractional coordinates (direct lattice) 
   0.00000000  0.00000000  0.00000000
   0.25000000  0.25000000  0.25000000
 
 position of ions in cartesian coordinates  (Angst):
   0.00000000  0.00000000  0.00000000
   1.40825000  1.40825000  1.40825000
 


--------------------------------------------------------------------------------------------------------


 k-point  1 :   0.0000 0.0000 0.0000  plane waves:     941
 k-point  2 :   0.2500 0.0000 0.0000  plane waves:     959
 k-point  3 :   0.5000 0.0000 0.0000  plane waves:     978
 k-point  4 :   0.2500 0.2500 0.0000  plane waves:     982
 k-point  5 :   0.5000 0.2500 0.0000  plane waves:     971
 k-point  6 :  -0.2500 0.2500 0.0000  plane waves:     975
 k-point  7 :   0.5000 0.5000 0.0000  plane waves:     982
 k-point  8 :  -0.2500 0.5000 0.2500  plane waves:     952
 k-point  9 :   0.5000 0.5000 0.5000  plane waves:     978
 k-point 10 :   0.4898 0.4898 0.4898  plane waves:     969
 k-point 11 :   0.4796 0.4796 0.4796  plane waves:     969
 k-point 12 :   0.4694 0.4694 0.4694  plane waves:     969
 k-point 13 :   0.4592 0.4592 0.4592  plane waves:     969
 k-point 14 :   0.4490 0.4490 0.4490  plane waves:     969
 k-point 15 :   0.4388 0.4388 0.4388  plane waves:     969
 k-point 16 :   0.4286 0.4286 0.4286  plane waves:     969
 k-point 17 :   0.4184 0.4184 0.4184  plane waves:     963
 k-point 18 :   0.4082 0.4082 0.4082  plane waves:     963
 k-point 19 :   0.3980 0.3980 0.3980  plane waves:     966
 k-point 20 :   0.3878 0.3878 0.3878  plane waves:     954
 k-point 21 :   0.3776 0.3776 0.3776  plane waves:     960
 k-point 22 :   0.3673 0.3673 0.3673  plane waves:     965
 k-point 23 :   0.3571 0.3571 0.3571  plane waves:     962
 k-point 24 :   0.3469 0.3469 0.3469  plane waves:     968
 k-point 25 :   0.3367 0.3367 0.3367  plane waves:     968
 k-point 26 :   0.3265 0.3265 0.3265  plane waves:     968
 k-point 27 :   0.3163 0.3163 0.3163  plane waves:     968
 k-point 28 :   0.3061 0.3061 0.3061  plane waves:     962
 k-point 29 :   0.2959 0.2959 0.2959  plane waves:     962
 k-point 30 :   0.2857 0.2857 0.2857  plane waves:     956
 k-point 31 :   0.2755 0.2755 0.2755  plane waves:     956
 k-point 32 :   0.2653 0.2653 0.2653  plane waves:     962
 k-point 33 :   0.2551 0.2551 0.2551  plane waves:     959
 k-point 34 :   0.2449 0.2449 0.2449  plane waves:     959
 k-point 35 :   0.2347 0.2347 0.2347  plane waves:     953
 k-point 36 :   0.2245 0.2245 0.2245  plane waves:     953
 k-point 37 :   0.2143 0.2143 0.2143  plane waves:     953
 k-point 38 :   0.2041 0.2041 0.2041  plane waves:     956
 k-point 39 :   0.1939 0.1939 0.1939  plane waves:     956
 k-point 40 :   0.1837 0.1837 0.1837  plane waves:     950
 k-point 41 :   0.1735 0.1735 0.1735  plane waves:     956
 k-point 42 :   0.1633 0.1633 0.1633  plane waves:     956
 k-point 43 :   0.1531 0.1531 0.1531  plane waves:     953
 k-point 44 :   0.1429 0.1429 0.1429  plane waves:     959
 k-point 45 :   0.1327 0.1327 0.1327  plane waves:     953
 k-point 46 :   0.1224 0.1224 0.1224  plane waves:     953
 k-point 47 :   0.1122 0.1122 0.1122  plane waves:     950
 k-point 48 :   0.1020 0.1020 0.1020  plane waves:     950
 k-point 49 :   0.0918 0.0918 0.0918  plane waves:     950
 k-point 50 :   0.0816 0.0816 0.0816  plane waves:     950
 k-point 51 :   0.0714 0.0714 0.0714  plane waves:     950
 k-point 52 :   0.0612 0.0612 0.0612  plane waves:     944
 k-point 53 :   0.0510 0.0510 0.0510  plane waves:     944
 k-point 54 :   0.0408 0.0408 0.0408  plane waves:     944
 k-point 55 :   0.0306 0.0306 0.0306  plane waves:     941
 k-point 56 :   0.0204 0.0204 0.0204  plane waves:     941
 k-point 57 :   0.0102 0.0102 0.0102  plane waves:     941
 k-point 58 :   0.0000 0.0000 0.0000  plane waves:     941
 k-point 59 :   0.0000 0.0000 0.0000  plane waves:     941
 k-point 60 :   0.0102 0.0000 0.0102  plane waves:     941
 k-point 61 :   0.0204 0.0000 0.0204  plane waves:     941
 k-point 62 :   0.0306 0.0000 0.0306  plane waves:     941
 k-point 63 :   0.0408 0.0000 0.0408  plane waves:     945
 k-point 64 :   0.0510 0.0000 0.0510  plane waves:     945
 k-point 65 :   0.0612 0.0000 0.0612  plane waves:     945
 k-point 66 :   0.0714 0.0000 0.0714  plane waves:     953
 k-point 67 :   0.0816 0.0000 0.0816  plane waves:     953
 k-point 68 :   0.0918 0.0000 0.0918  plane waves:     953
 k-point 69 :   0.1020 0.0000 0.1020  plane waves:     953
 k-point 70 :   0.1122 0.0000 0.1122  plane waves:     945
 k-point 71 :   0.1224 0.0000 0.1224  plane waves:     949
 k-point 72 :   0.1327 0.0000 0.1327  plane waves:     950
 k-point 73 :   0.1429 0.0000 0.1429  plane waves:     950
 k-point 74 :   0.1531 0.0000 0.1531  plane waves:     962
 k-point 75 :   0.1633 0.0000 0.1633  plane waves:     966
 k-point 76 :   0.1735 0.0000 0.1735  plane waves:     966
 k-point 77 :   0.1837 0.0000 0.1837  plane waves:     966
 k-point 78 :   0.1939 0.0000 0.1939  plane waves:     966
 k-point 79 :   0.2041 0.0000 0.2041  plane waves:     966
 k-point 80 :   0.2143 0.0000 0.2143  plane waves:     974
 k-point 81 :   0.2245 0.0000 0.2245  plane waves:     978
 k-point 82 :   0.2347 0.0000 0.2347  plane waves:     982
 k-point 83 :   0.2449 0.0000 0.2449  plane waves:     982
 k-point 84 :   0.2551 0.0000 0.2551  plane waves:     982
 k-point 85 :   0.2653 0.0000 0.2653  plane waves:     982
 k-point 86 :   0.2755 0.0000 0.2755  plane waves:     982
 k-point 87 :   0.2857 0.0000 0.2857  plane waves:     974
 k-point 88 :   0.2959 0.0000 0.2959  plane waves:     982
 k-point 89 :   0.3061 0.0000 0.3061  plane waves:     974
 k-point 90 :   0.3163 0.0000 0.3163  plane waves:     974
 k-point 91 :   0.3265 0.0000 0.3265  plane waves:     970
 k-point 92 :   0.3367 0.0000 0.3367  plane waves:     962
 k-point 93 :   0.3469 0.0000 0.3469  plane waves:     966
 k-point 94 :   0.3571 0.0000 0.3571  plane waves:     974
 k-point 95 :   0.3673 0.0000 0.3673  plane waves:     974
 k-point 96 :   0.3776 0.0000 0.3776  plane waves:     974
 k-point 97 :   0.3878 0.0000 0.3878  plane waves:     974
 k-point 98 :   0.3980 0.0000 0.3980  plane waves:     978
 k-point 99 :   0.4082 0.0000 0.4082  plane waves:     978
 k-point ** :   0.4184 0.0000 0.4184  plane waves:     978
 k-point ** :   0.4286 0.0000 0.4286  plane waves:     978
 k-point ** :   0.4388 0.0000 0.4388  plane waves:     978
 k-point ** :   0.4490 0.0000 0.4490  plane waves:     974
 k-point ** :   0.4592 0.0000 0.4592  plane waves:     974
 k-point ** :   0.4694 0.0000 0.4694  plane waves:     982
 k-point ** :   0.4796 0.0000 0.4796  plane waves:     982
 k-point ** :   0.4898 0.0000 0.4898  plane waves:     982
 k-point ** :   0.5000 0.0000 0.5000  plane waves:     982

 maximum and minimum number of plane-waves per node :       340      298

 maximum number of plane-waves:       982
 maximum index in each direction: 
   IXMAX=    7   IYMAX=    6   IZMAX=    6
   IXMIN=   -7   IYMIN=   -7   IZMIN=   -7


 parallel 3D FFT for wavefunctions:
    minimum data exchange during FFTs selected (reduces bandwidth)
 parallel 3D FFT for charge:
    minimum data exchange during FFTs selected (reduces bandwidth)

 
 Radii for the augmentation spheres in the non-local exchange
 for species   1 augmentation radius   1.454 (default was   1.163)
       energy cutoff for augmentation   1800.0

 real space projection operators:
  total allocation   :       1561.33 KBytes
  max/ min on nodes  :        530.08        515.62

 Maximum index for augmentation-charges in exchange         1357
  SETUP_FOCK is finished

 total amount of memory used by VASP MPI-rank0   105760. kBytes
=======================================================================

   base      :      30000. kBytes
   nonl-proj :       3919. kBytes
   fftplans  :       1194. kBytes
   grid      :       2064. kBytes
   one-center:         16. kBytes
   HF        :         33. kBytes
   nonlr-proj:        791. kBytes
   wavefun   :      67743. kBytes
 
     INWAV:  cpu time    1.8346: real time    1.8417
 initial charge density was supplied:
 number of electron       7.9999998 magnetization      -0.0000020
 keeping initial charge density in first step


--------------------------------------------------------------------------------------------------------


 Maximum index for augmentation-charges         2284 (set IRDMAX)


--------------------------------------------------------------------------------------------------------


 First call to EWALD:  gamma=   0.499
 Maximum number of real-space cells 3x 3x 3
 Maximum number of reciprocal cells 3x 3x 3

    FEWALD:  cpu time    0.0015: real time    0.0015


--------------------------------------- Iteration      1(   1)  ---------------------------------------


    POTLOK:  cpu time    0.0896: real time    0.0904
    SETDIJ:  cpu time    0.2591: real time    0.2593
    TRIAL :  cpu time  143.3543: real time  143.4197
    CORREC:  cpu time    0.0020: real time    0.0020
    --------------------------------------------
      LOOP:  cpu time  143.7642: real time  143.8308

 eigenvalue-minimisations  :     0
 total energy-change (2. order) :-0.1038780E+02  (-0.4394108E-01)
 number of electron       7.9999998 magnetization      -0.0000020
 augmentation part        7.9999998 magnetization      -0.0000020

 Free energy of the ion-electron system (eV)
  ---------------------------------------------------
  alpha Z        PSCENC =        17.10940282
  Ewald energy   TEWEN  =      -220.32663596
  -Hartree energ DENC   =       -15.78783971
  -exchange      EXHF   =        10.74054565
  -V(xc)+E(xc)   XCENC  =       -12.14782127
  PAW double counting   =       477.13771159     -453.67999259
  entropy T*S    EENTRO =        -0.00000011
  eigenvalues    EBANDS =       -20.79649011
  atomic energy  EATOM  =       207.36337913
  ---------------------------------------------------
  free energy    TOTEN  =       -10.38779725 eV

  energy without entropy =      -10.38779715  energy(sigma->0) =      -10.38779720
  exchange ACFDT corr.  =        -0.00002957  see jH, gK, PRB 81, 115126


--------------------------------------------------------------------------------------------------------




--------------------------------------- Iteration      1(   2)  ---------------------------------------


    TRIAL :  cpu time  143.2638: real time  143.3325
    CORREC:  cpu time    0.0011: real time    0.0011
    --------------------------------------------
      LOOP:  cpu time  143.2662: real time  143.3622

 eigenvalue-minimisations  :     0
 total energy-change (2. order) :-0.3592300E-01  (-0.3093140E-01)
 number of electron       7.9999998 magnetization      -0.0000020
 augmentation part        7.9999998 magnetization      -0.0000020

 Free energy of the ion-electron system (eV)
  ---------------------------------------------------
  alpha Z        PSCENC =        17.10940282
  Ewald energy   TEWEN  =      -220.32663596
  -Hartree energ DENC   =       -15.78783971
  -exchange      EXHF   =        10.74819995
  -V(xc)+E(xc)   XCENC  =       -12.14782127
  PAW double counting   =       477.13771159     -453.67999259
  entropy T*S    EENTRO =        -0.00000000
  eigenvalues    EBANDS =       -20.84012411
  atomic energy  EATOM  =       207.36337913
  ---------------------------------------------------
  free energy    TOTEN  =       -10.42372026 eV

  energy without entropy =      -10.42372026  energy(sigma->0) =      -10.42372026
  exchange ACFDT corr.  =        -0.00000004  see jH, gK, PRB 81, 115126


--------------------------------------------------------------------------------------------------------




--------------------------------------- Iteration      1(   3)  ---------------------------------------


    TRIAL :  cpu time  143.0490: real time  143.1141
    CORREC:  cpu time    0.0010: real time    0.0010
    --------------------------------------------
      LOOP:  cpu time  143.0564: real time  143.1435

 eigenvalue-minimisations  :     0
 total energy-change (2. order) :-0.2381356E-01  (-0.1354097E-01)
 number of electron       7.9999998 magnetization      -0.0000020
 augmentation part        7.9999998 magnetization      -0.0000020

 Free energy of the ion-electron system (eV)
  ---------------------------------------------------
  alpha Z        PSCENC =        17.10940282
  Ewald energy   TEWEN  =      -220.32663596
  -Hartree energ DENC   =       -15.78783971
  -exchange      EXHF   =        10.75685109
  -V(xc)+E(xc)   XCENC  =       -12.14782127
  PAW double counting   =       477.13771159     -453.67999259
  entropy T*S    EENTRO =        -0.00000000
  eigenvalues    EBANDS =       -20.87258890
  atomic energy  EATOM  =       207.36337913
  ---------------------------------------------------
  free energy    TOTEN  =       -10.44753382 eV

  energy without entropy =      -10.44753382  energy(sigma->0) =      -10.44753382
  exchange ACFDT corr.  =        -0.00000000  see jH, gK, PRB 81, 115126


--------------------------------------------------------------------------------------------------------




--------------------------------------- Iteration      1(   4)  ---------------------------------------


    TRIAL :  cpu time  142.5635: real time  142.6302
    CORREC:  cpu time    0.0012: real time    0.0012
    --------------------------------------------
      LOOP:  cpu time  142.5662: real time  142.6456

 eigenvalue-minimisations  :     0
 total energy-change (2. order) :-0.1031135E-01  (-0.5932440E-02)
 number of electron       7.9999998 magnetization      -0.0000020
 augmentation part        7.9999998 magnetization      -0.0000020

 Free energy of the ion-electron system (eV)
  ---------------------------------------------------
  alpha Z        PSCENC =        17.10940282
  Ewald energy   TEWEN  =      -220.32663596
  -Hartree energ DENC   =       -15.78783971
  -exchange      EXHF   =        10.76410796
  -V(xc)+E(xc)   XCENC  =       -12.14782127
  PAW double counting   =       477.13771159     -453.67999259
  entropy T*S    EENTRO =        -0.00000000
  eigenvalues    EBANDS =       -20.89015713
  atomic energy  EATOM  =       207.36337913
  ---------------------------------------------------
  free energy    TOTEN  =       -10.45784517 eV

  energy without entropy =      -10.45784517  energy(sigma->0) =      -10.45784517
  exchange ACFDT corr.  =        -0.00000000  see jH, gK, PRB 81, 115126


--------------------------------------------------------------------------------------------------------




--------------------------------------- Iteration      1(   5)  ---------------------------------------


    TRIAL :  cpu time  142.7751: real time  142.8381
    CORREC:  cpu time    0.0011: real time    0.0011
    --------------------------------------------
      LOOP:  cpu time  142.7783: real time  142.8549

 eigenvalue-minimisations  :     0
 total energy-change (2. order) :-0.4783028E-02  (-0.3243940E-02)
 number of electron       7.9999998 magnetization      -0.0000020
 augmentation part        7.9999998 magnetization      -0.0000020

 Free energy of the ion-electron system (eV)
  ---------------------------------------------------
  alpha Z        PSCENC =        17.10940282
  Ewald energy   TEWEN  =      -220.32663596
  -Hartree energ DENC   =       -15.78783971
  -exchange      EXHF   =        10.76948899
  -V(xc)+E(xc)   XCENC  =       -12.14782127
  PAW double counting   =       477.13771159     -453.67999259
  entropy T*S    EENTRO =        -0.00000000
  eigenvalues    EBANDS =       -20.90032119
  atomic energy  EATOM  =       207.36337913
  ---------------------------------------------------
  free energy    TOTEN  =       -10.46262819 eV

  energy without entropy =      -10.46262819  energy(sigma->0) =      -10.46262819
  exchange ACFDT corr.  =         0.00000000  see jH, gK, PRB 81, 115126


--------------------------------------------------------------------------------------------------------




--------------------------------------- Iteration      1(   6)  ---------------------------------------


    TRIAL :  cpu time  142.7612: real time  142.8256
    CORREC:  cpu time    0.0011: real time    0.0011
    --------------------------------------------
      LOOP:  cpu time  142.7644: real time  142.8418

 eigenvalue-minimisations  :     0
 total energy-change (2. order) :-0.2733990E-02  (-0.1867256E-02)
 number of electron       7.9999998 magnetization      -0.0000020
 augmentation part        7.9999998 magnetization      -0.0000020

 Free energy of the ion-electron system (eV)
  ---------------------------------------------------
  alpha Z        PSCENC =        17.10940282
  Ewald energy   TEWEN  =      -220.32663596
  -Hartree energ DENC   =       -15.78783971
  -exchange      EXHF   =        10.77327221
  -V(xc)+E(xc)   XCENC  =       -12.14782127
  PAW double counting   =       477.13771159     -453.67999259
  entropy T*S    EENTRO =        -0.00000000
  eigenvalues    EBANDS =       -20.90683840
  atomic energy  EATOM  =       207.36337913
  ---------------------------------------------------
  free energy    TOTEN  =       -10.46536218 eV

  energy without entropy =      -10.46536218  energy(sigma->0) =      -10.46536218
  exchange ACFDT corr.  =         0.00000000  see jH, gK, PRB 81, 115126


--------------------------------------------------------------------------------------------------------




--------------------------------------- Iteration      1(   7)  ---------------------------------------


    TRIAL :  cpu time  142.7345: real time  142.8027
    CORREC:  cpu time    0.0011: real time    0.0011
    --------------------------------------------
      LOOP:  cpu time  142.7366: real time  142.8196

 eigenvalue-minimisations  :     0
 total energy-change (2. order) :-0.1557460E-02  (-0.9460367E-03)
 number of electron       7.9999998 magnetization      -0.0000020
 augmentation part        7.9999998 magnetization      -0.0000020

 Free energy of the ion-electron system (eV)
  ---------------------------------------------------
  alpha Z        PSCENC =        17.10940282
  Ewald energy   TEWEN  =      -220.32663596
  -Hartree energ DENC   =       -15.78783971
  -exchange      EXHF   =        10.77591267
  -V(xc)+E(xc)   XCENC  =       -12.14782127
  PAW double counting   =       477.13771159     -453.67999259
  entropy T*S    EENTRO =        -0.00000000
  eigenvalues    EBANDS =       -20.91103631
  atomic energy  EATOM  =       207.36337913
  ---------------------------------------------------
  free energy    TOTEN  =       -10.46691964 eV

  energy without entropy =      -10.46691964  energy(sigma->0) =      -10.46691964
  exchange ACFDT corr.  =         0.00000000  see jH, gK, PRB 81, 115126


--------------------------------------------------------------------------------------------------------




--------------------------------------- Iteration      1(   8)  ---------------------------------------


    TRIAL :  cpu time  142.7317: real time  142.7980
    CORREC:  cpu time    0.0010: real time    0.0010
    --------------------------------------------
      LOOP:  cpu time  142.7333: real time  142.8143

 eigenvalue-minimisations  :     0
 total energy-change (2. order) :-0.7730586E-03  (-0.4321047E-03)
 number of electron       7.9999998 magnetization      -0.0000020
 augmentation part        7.9999998 magnetization      -0.0000020

 Free energy of the ion-electron system (eV)
  ---------------------------------------------------
  alpha Z        PSCENC =        17.10940282
  Ewald energy   TEWEN  =      -220.32663596
  -Hartree energ DENC   =       -15.78783971
  -exchange      EXHF   =        10.77781271
  -V(xc)+E(xc)   XCENC  =       -12.14782127
  PAW double counting   =       477.13771159     -453.67999259
  entropy T*S    EENTRO =        -0.00000000
  eigenvalues    EBANDS =       -20.91370941
  atomic energy  EATOM  =       207.36337913
  ---------------------------------------------------
  free energy    TOTEN  =       -10.46769270 eV

  energy without entropy =      -10.46769270  energy(sigma->0) =      -10.46769270
  exchange ACFDT corr.  =         0.00000000  see jH, gK, PRB 81, 115126


--------------------------------------------------------------------------------------------------------




--------------------------------------- Iteration      1(   9)  ---------------------------------------


    TRIAL :  cpu time  142.6754: real time  142.7424
    CORREC:  cpu time    0.0010: real time    0.0010
    --------------------------------------------
      LOOP:  cpu time  142.6771: real time  142.7591

 eigenvalue-minimisations  :     0
 total energy-change (2. order) :-0.3541408E-03  (-0.2000832E-03)
 number of electron       7.9999998 magnetization      -0.0000020
 augmentation part        7.9999998 magnetization      -0.0000020

 Free energy of the ion-electron system (eV)
  ---------------------------------------------------
  alpha Z        PSCENC =        17.10940282
  Ewald energy   TEWEN  =      -220.32663596
  -Hartree energ DENC   =       -15.78783971
  -exchange      EXHF   =        10.77923685
  -V(xc)+E(xc)   XCENC  =       -12.14782127
  PAW double counting   =       477.13771159     -453.67999259
  entropy T*S    EENTRO =        -0.00000000
  eigenvalues    EBANDS =       -20.91548769
  atomic energy  EATOM  =       207.36337913
  ---------------------------------------------------
  free energy    TOTEN  =       -10.46804684 eV

  energy without entropy =      -10.46804684  energy(sigma->0) =      -10.46804684
  exchange ACFDT corr.  =        -0.00000000  see jH, gK, PRB 81, 115126


--------------------------------------------------------------------------------------------------------




--------------------------------------- Iteration      1(  10)  ---------------------------------------


    TRIAL :  cpu time  142.6999: real time  142.7660
    CORREC:  cpu time    0.0011: real time    0.0011
    --------------------------------------------
      LOOP:  cpu time  142.7018: real time  142.7828

 eigenvalue-minimisations  :     0
 total energy-change (2. order) :-0.1664007E-03  (-0.9627859E-04)
 number of electron       7.9999998 magnetization      -0.0000020
 augmentation part        7.9999998 magnetization      -0.0000020

 Free energy of the ion-electron system (eV)
  ---------------------------------------------------
  alpha Z        PSCENC =        17.10940282
  Ewald energy   TEWEN  =      -220.32663596
  -Hartree energ DENC   =       -15.78783971
  -exchange      EXHF   =        10.78031554
  -V(xc)+E(xc)   XCENC  =       -12.14782127
  PAW double counting   =       477.13771159     -453.67999259
  entropy T*S    EENTRO =        -0.00000000
  eigenvalues    EBANDS =       -20.91673278
  atomic energy  EATOM  =       207.36337913
  ---------------------------------------------------
  free energy    TOTEN  =       -10.46821324 eV

  energy without entropy =      -10.46821324  energy(sigma->0) =      -10.46821324
  exchange ACFDT corr.  =         0.00000000  see jH, gK, PRB 81, 115126


--------------------------------------------------------------------------------------------------------




--------------------------------------- Iteration      1(  11)  ---------------------------------------


    TRIAL :  cpu time  142.6058: real time  142.6771
    CORREC:  cpu time    0.0019: real time    0.0019
    EDDIAG:  cpu time  142.3449: real time  142.4089
    --------------------------------------------
      LOOP:  cpu time  284.9546: real time  285.1035

 eigenvalue-minimisations  :     0
 total energy-change (2. order) :-0.8046764E-04  (-0.4579851E-04)
 number of electron       7.9999998 magnetization      -0.0000020
 augmentation part        7.9999998 magnetization      -0.0000020

 Free energy of the ion-electron system (eV)
  ---------------------------------------------------
  alpha Z        PSCENC =        17.10940282
  Ewald energy   TEWEN  =      -220.32663596
  -Hartree energ DENC   =       -15.78783971
  -exchange      EXHF   =        10.78170373
  -V(xc)+E(xc)   XCENC  =       -12.14782127
  PAW double counting   =       477.13771159     -453.67999259
  entropy T*S    EENTRO =        -0.00000000
  eigenvalues    EBANDS =       -20.91761744
  atomic energy  EATOM  =       207.36337913
  ---------------------------------------------------
  free energy    TOTEN  =       -10.46829371 eV

  energy without entropy =      -10.46829371  energy(sigma->0) =      -10.46829371
  exchange ACFDT corr.  =         0.00000000  see jH, gK, PRB 81, 115126


--------------------------------------------------------------------------------------------------------


  average scaling for gradient   1.1087


 average (electrostatic) potential at core
  the test charge radii are     1.1631
  (the norm of the test charge is              1.0000)
       1 -29.6270       2 -29.6270
 
 
 
 E-fermi :   4.0108     XC(G=0):  -7.6317     alpha+bet : -9.2781


 spin component 1

 k-point     1 :       0.0000    0.0000    0.0000
  band No.  band energies     occupation 
      1     -10.6018      1.00000
      2       3.5322      1.00000
      3       3.5322      1.00000
      4       3.5322      1.00000
      5       4.6652      0.00000
      6       6.7802      0.00000
      7       6.7802      0.00000
      8       6.7802      0.00000
      9      10.8684      0.00000
     10      13.6813      0.00000
     11      13.6813      0.00000
     12      15.2460      0.00000
     13      15.2460      0.00000
     14      15.2460      0.00000
     15      18.2768      0.00000
     16      29.1211      0.00000
     17      29.1211      0.00000
     18      29.1211      0.00000
     19      30.3354      0.00000
     20      30.3354      0.00000
     21      30.3354      0.00000
     22      30.4007      0.00000
     23      30.4007      0.00000
     24      31.3798      0.00000
     25      31.3798      0.00000
     26      31.3798      0.00000
     27      39.5713      0.00000
     28      40.0249      0.00000
     29      40.0249      0.00000
     30      40.0249      0.00000
     31      42.8161      0.00000
     32      42.8161      0.00000
     33      43.4701      0.00000
     34      43.4701      0.00000
     35      44.9237      0.00000
     36      44.9237      0.00000
     37      44.9237      0.00000
     38      45.1213      0.00000
     39      45.4433      0.00000
     40      45.4433      0.00000
     41      45.4433      0.00000
     42      46.1936      0.00000
     43      46.1936      0.00000
     44      46.1936      0.00000
     45      46.6011      0.00000
     46      46.6012      0.00000
     47      46.6013      0.00000
     48      47.6034      0.00000
     49      47.6037      0.00000
     50      47.6040      0.00000
     51      51.1206      0.00000
     52      52.9452      0.00000
     53      53.0175      0.00000
     54      53.0957      0.00000

 k-point     2 :       0.2500    0.0000    0.0000
  band No.  band energies     occupation 
      1      -9.7694      1.00000
      2      -1.4944      1.00000
      3       2.5801      1.00000
      4       2.5801      1.00000
      5       5.0070      0.00000
      6       7.9284      0.00000
      7       7.9284      0.00000
      8      10.2330      0.00000
      9      12.4542      0.00000
     10      12.5831      0.00000
     11      12.5831      0.00000
     12      15.5202      0.00000
     13      19.4742      0.00000
     14      19.4742      0.00000
     15      22.4148      0.00000
     16      22.6321      0.00000
     17      22.6321      0.00000
     18      23.4205      0.00000
     19      30.2351      0.00000
     20      30.2351      0.00000
     21      31.2010      0.00000
     22      31.2010      0.00000
     23      32.0310      0.00000
     24      32.8549      0.00000
     25      33.7956      0.00000
     26      34.9531      0.00000
     27      34.9531      0.00000
     28      37.8460      0.00000
     29      37.8460      0.00000
     30      38.2371      0.00000
     31      38.2371      0.00000
     32      40.1028      0.00000
     33      40.6643      0.00000
     34      40.6643      0.00000
     35      40.9921      0.00000
     36      41.3256      0.00000
     37      43.7192      0.00000
     38      43.7192      0.00000
     39      44.7178      0.00000
     40      45.7085      0.00000
     41      45.9473      0.00000
     42      45.9473      0.00000
     43      46.3695      0.00000
     44      49.8735      0.00000
     45      49.8736      0.00000
     46      51.0402      0.00000
     47      51.0404      0.00000
     48      51.9433      0.00000
     49      52.2273      0.00000
     50      52.2277      0.00000
     51      53.6488      0.00000
     52      54.7979      0.00000
     53      57.9040      0.00000
     54      58.1552      0.00000

 k-point     3 :       0.5000    0.0000    0.0000
  band No.  band energies     occupation 
      1      -8.2430      1.00000
      2      -4.8094      1.00000
      3       1.9902      1.00000
      4       1.9902      1.00000
      5       4.4745      0.00000
      6       7.9988      0.00000
      7       7.9988      0.00000
      8      11.4973      0.00000
      9      15.2353      0.00000
     10      15.8388      0.00000
     11      15.8388      0.00000
     12      16.2299      0.00000
     13      16.6679      0.00000
     14      16.6679      0.00000
     15      23.5916      0.00000
     16      24.7489      0.00000
     17      26.2681      0.00000
     18      26.2681      0.00000
     19      26.3334      0.00000
     20      26.3334      0.00000
     21      29.5236      0.00000
     22      30.7663      0.00000
     23      31.2327      0.00000
     24      31.2327      0.00000
     25      32.2907      0.00000
     26      32.2907      0.00000
     27      33.0089      0.00000
     28      36.1301      0.00000
     29      36.1301      0.00000
     30      36.2762      0.00000
     31      36.2762      0.00000
     32      37.2366      0.00000
     33      38.2769      0.00000
     34      38.4577      0.00000
     35      43.4511      0.00000
     36      43.4511      0.00000
     37      43.9510      0.00000
     38      45.0130      0.00000
     39      45.0130      0.00000
     40      45.9719      0.00000
     41      49.4156      0.00000
     42      49.4157      0.00000
     43      50.6269      0.00000
     44      50.6269      0.00000
     45      51.4850      0.00000
     46      53.6205      0.00000
     47      53.9270      0.00000
     48      53.9463      0.00000
     49      55.4298      0.00000
     50      55.4879      0.00000
     51      56.2160      0.00000
     52      57.2038      0.00000
     53      58.2827      0.00000
     54      60.3668      0.00000

 k-point     4 :       0.2500    0.2500    0.0000
  band No.  band energies     occupation 
      1      -9.4680      1.00000
      2      -1.4116      1.00000
      3       1.3044      1.00000
      4       1.3044      1.00000
      5       5.1216      0.00000
      6       7.0828      0.00000
      7      10.3301      0.00000
      8      10.3301      0.00000
      9      11.6220      0.00000
     10      14.7780      0.00000
     11      14.8067      0.00000
     12      17.3911      0.00000
     13      17.3911      0.00000
     14      18.0140      0.00000
     15      22.2452      0.00000
     16      22.2452      0.00000
     17      23.4552      0.00000
     18      24.5320      0.00000
[...]
     16      22.4453      0.00000
     17      22.4536      0.00000
     18      23.3551      0.00000
     19      24.9661      0.00000
     20      25.3311      0.00000
     21      25.9042      0.00000
     22      26.1346      0.00000
     23      31.2963      0.00000
     24      32.4346      0.00000
     25      33.6538      0.00000
     26      33.9840      0.00000
     27      35.5633      0.00000
     28      37.8165      0.00000
     29      38.3578      0.00000
     30      39.9194      0.00000
     31      40.1236      0.00000
     32      42.7013      0.00000
     33      43.6007      0.00000
     34      44.9918      0.00000
     35      45.4360      0.00000
     36      46.3107      0.00000
     37      46.9140      0.00000
     38      47.2485      0.00000
     39      48.5934      0.00000
     40      50.8645      0.00000
     41      52.9138      0.00000
     42      53.8293      0.00000
     43      55.9872      0.00000
     44      56.4772      0.00000
     45      57.4687      0.00000
     46      62.7654      0.00000
     47      63.2830      0.00000
     48      66.6587      0.00000
     49      68.4237      0.00000
     50      69.1533      0.00000
     51      69.8256      0.00000
     52      73.6906      0.00000
     53      73.9660      0.00000
     54      85.4200      0.00000

 k-point   105 :       0.4694    0.0000    0.4694
  band No.  band energies     occupation 
      1      -6.7079      1.00000
      2      -5.6862      1.00000
      3       0.1526      1.00000
      4       0.1527      1.00000
      5       4.7164      0.00000
      6       4.9804      0.00000
      7      14.2921      0.00000
      8      14.3003      0.00000
      9      16.0244      0.00000
     10      17.1156      0.00000
     11      17.3138      0.00000
     12      17.3518      0.00000
     13      17.4326      0.00000
     14      18.4888      0.00000
     15      22.7412      0.00000
     16      22.7423      0.00000
     17      22.7615      0.00000
     18      23.6008      0.00000
     19      24.6356      0.00000
     20      24.9899      0.00000
     21      25.4407      0.00000
     22      25.7224      0.00000
     23      31.4486      0.00000
     24      32.3840      0.00000
     25      33.7424      0.00000
     26      34.0939      0.00000
     27      36.0236      0.00000
     28      37.8235      0.00000
     29      38.1635      0.00000
     30      39.9890      0.00000
     31      40.1208      0.00000
     32      42.6803      0.00000
     33      43.6022      0.00000
     34      44.2727      0.00000
     35      45.4235      0.00000
     36      46.3667      0.00000
     37      47.1439      0.00000
     38      47.3592      0.00000
     39      48.9517      0.00000
     40      50.8675      0.00000
     41      52.9878      0.00000
     42      54.0427      0.00000
     43      56.1252      0.00000
     44      57.1033      0.00000
     45      57.9596      0.00000
     46      63.1604      0.00000
     47      63.2737      0.00000
     48      66.7344      0.00000
     49      69.1426      0.00000
     50      69.3322      0.00000
     51      70.2348      0.00000
     52      73.6491      0.00000
     53      74.5131      0.00000
     54      85.0243      0.00000

 k-point   106 :       0.4796    0.0000    0.4796
  band No.  band energies     occupation 
      1      -6.5443      1.00000
      2      -5.8630      1.00000
      3       0.1426      1.00000
      4       0.1426      1.00000
      5       4.7484      0.00000
      6       4.9243      0.00000
      7      14.3819      0.00000
      8      14.3973      0.00000
      9      16.2177      0.00000
     10      16.9887      0.00000
     11      17.1713      0.00000
     12      17.2011      0.00000
     13      17.6720      0.00000
     14      18.2979      0.00000
     15      23.0408      0.00000
     16      23.0469      0.00000
     17      23.0744      0.00000
     18      23.8642      0.00000
     19      24.3109      0.00000
     20      24.6549      0.00000
     21      25.0117      0.00000
     22      25.3321      0.00000
     23      31.5930      0.00000
     24      32.3103      0.00000
     25      33.8274      0.00000
     26      34.1997      0.00000
     27      36.4760      0.00000
     28      37.8098      0.00000
     29      38.0209      0.00000
     30      40.0491      0.00000
     31      40.1195      0.00000
     32      42.6434      0.00000
     33      43.6072      0.00000
     34      43.6349      0.00000
     35      45.6420      0.00000
     36      46.3853      0.00000
     37      47.4297      0.00000
     38      47.6701      0.00000
     39      48.8607      0.00000
     40      50.7239      0.00000
     41      52.9644      0.00000
     42      54.1628      0.00000
     43      56.1895      0.00000
     44      57.6431      0.00000
     45      58.5526      0.00000
     46      63.2019      0.00000
     47      63.5725      0.00000
     48      66.7672      0.00000
     49      68.8286      0.00000
     50      69.6348      0.00000
     51      71.6883      0.00000
     52      73.5884      0.00000
     53      74.9997      0.00000
     54      84.5726      0.00000

 k-point   107 :       0.4898    0.0000    0.4898
  band No.  band energies     occupation 
      1      -6.3779      1.00000
      2      -6.0372      1.00000
      3       0.1365      1.00000
      4       0.1366      1.00000
      5       4.7852      0.00000
      6       4.8731      0.00000
      7      14.4391      0.00000
      8      14.4638      0.00000
      9      16.4061      0.00000
     10      16.8563      0.00000
     11      17.0977      0.00000
     12      17.0977      0.00000
     13      17.8626      0.00000
     14      18.1108      0.00000
     15      23.3441      0.00000
     16      23.3579      0.00000
     17      23.3919      0.00000
     18      24.0057      0.00000
     19      24.1290      0.00000
     20      24.3294      0.00000
     21      24.6050      0.00000
     22      24.9475      0.00000
     23      31.7327      0.00000
     24      32.2447      0.00000
     25      33.8932      0.00000
     26      34.2922      0.00000
     27      36.9094      0.00000
     28      37.7781      0.00000
     29      37.9175      0.00000
     30      40.1065      0.00000
     31      40.1277      0.00000
     32      42.6139      0.00000
     33      43.3032      0.00000
     34      43.6054      0.00000
     35      45.9092      0.00000
     36      46.3588      0.00000
     37      47.6700      0.00000
     38      47.8737      0.00000
     39      48.7237      0.00000
     40      50.6023      0.00000
     41      52.8707      0.00000
     42      54.3386      0.00000
     43      56.4671      0.00000
     44      58.3024      0.00000
     45      59.0675      0.00000
     46      63.2545      0.00000
     47      64.1900      0.00000
     48      66.8191      0.00000
     49      68.7562      0.00000
     50      69.9487      0.00000
     51      73.4112      0.00000
     52      73.6035      0.00000
     53      75.4667      0.00000
     54      84.0859      0.00000

 k-point   108 :       0.5000    0.0000    0.5000
  band No.  band energies     occupation 
      1      -6.2089      1.00000
      2      -6.2088      1.00000
      3       0.1344      1.00000
      4       0.1346      1.00000
      5       4.8267      0.00000
      6       4.8268      0.00000
      7      14.4589      0.00000
      8      14.4936      0.00000
      9      16.5887      0.00000
     10      16.7081      0.00000
     11      17.0471      0.00000
     12      17.0698      0.00000
     13      17.9289      0.00000
     14      18.0407      0.00000
     15      23.6506      0.00000
     16      23.6740      0.00000
     17      23.6793      0.00000
     18      23.7117      0.00000
     19      24.0284      0.00000
     20      24.2250      0.00000
     21      24.4162      0.00000
     22      24.5774      0.00000
     23      31.8693      0.00000
     24      32.1443      0.00000
     25      33.9540      0.00000
     26      34.3966      0.00000
     27      37.3042      0.00000
     28      37.7622      0.00000
     29      37.8613      0.00000
     30      40.1297      0.00000
     31      40.1367      0.00000
     32      42.6174      0.00000
     33      43.1201      0.00000
     34      43.6136      0.00000
     35      46.1648      0.00000
     36      46.1925      0.00000
     37      47.8624      0.00000
     38      48.0905      0.00000
     39      48.1904      0.00000
     40      50.7646      0.00000
     41      52.9815      0.00000
     42      54.4744      0.00000
     43      56.7490      0.00000
     44      58.8492      0.00000
     45      59.4826      0.00000
     46      63.1655      0.00000
     47      64.5367      0.00000
     48      66.7568      0.00000
     49      68.7700      0.00000
     50      70.3022      0.00000
     51      73.6081      0.00000
     52      74.5290      0.00000
     53      75.8942      0.00000
     54      83.5675      0.00000


--------------------------------------------------------------------------------------------------------


 soft charge-density along one line, spin component           1
         0         1         2         3         4         5         6         7         8         9
 total charge-density along one line
 
 soft charge-density along one line, spin component           2
         0         1         2         3         4         5         6         7         8         9
 total charge-density along one line
 
 pseudopotential strength for first ion, spin component:           1
 13.224   0.000  16.488  -0.000  -0.000   0.000  -0.000  -0.000  -0.000  -0.000  -0.000   0.000  -0.000  -0.000  -0.000  -0.000
 16.488   0.000  20.569  -0.000  -0.000   0.000  -0.000  -0.000  -0.000  -0.000  -0.000   0.000  -0.000  -0.000  -0.000  -0.000
 -0.000  -0.000  -0.000  -0.000   2.933   0.000   0.000  -0.000   0.000   0.000   5.011  -0.000   0.000  -0.000   0.000   0.000
 -0.000   0.000  -0.000   0.000   0.000   0.000   2.933   0.000   0.000  -0.000   0.000   0.000   5.011  -0.000   0.000  -0.000
 -0.000   0.000  -0.000   0.000   0.000  -0.000   0.000   0.000   2.933   0.000   0.000  -0.000   0.000   0.000   5.011  -0.000
 -0.000  -0.000  -0.000  -0.000   5.011   0.000   0.000  -0.000   0.000   0.000   8.606  -0.000   0.000  -0.000   0.000   0.000
 -0.000   0.000  -0.000   0.000   0.000   0.000   5.011   0.000   0.000  -0.000   0.000   0.000   8.606  -0.000   0.000  -0.000
 -0.000   0.000  -0.000   0.000   0.000  -0.000   0.000   0.000   5.011   0.000   0.000  -0.000   0.000   0.000   8.606  -0.000
  0.000   0.000   0.000   0.000  -0.000   0.000   0.000   0.000  -0.000  -0.000  -0.000   0.000   0.000   0.000  -0.000  -0.000
  0.000   0.000   0.000   0.000  -0.000   0.000  -0.000  -0.000   0.000   0.000  -0.000   0.000  -0.000  -0.000   0.000   0.000
  0.000  -0.000   0.000  -0.000   0.000   0.000  -0.000   0.000   0.000  -0.000   0.000   0.000  -0.000   0.000   0.000  -0.000
  0.000   0.000   0.000   0.000   0.000   0.000  -0.000   0.000  -0.000   0.000   0.000   0.000  -0.000   0.000  -0.000   0.000
 -0.000   0.000  -0.000   0.000   0.000   0.000  -0.000  -0.000  -0.000   0.000   0.000   0.000  -0.000   0.000  -0.000   0.000
 pseudopotential strength for first ion, spin component:           2
 13.224   0.000  16.488  -0.000  -0.000   0.000  -0.000  -0.000  -0.000  -0.000  -0.000   0.000  -0.000  -0.000  -0.000  -0.000
 16.488   0.000  20.569  -0.000  -0.000   0.000  -0.000  -0.000  -0.000  -0.000  -0.000   0.000  -0.000  -0.000  -0.000  -0.000
 -0.000  -0.000  -0.000  -0.000   2.933   0.000   0.000  -0.000   0.000   0.000   5.011  -0.000   0.000  -0.000   0.000   0.000
 -0.000   0.000  -0.000   0.000   0.000   0.000   2.933   0.000   0.000  -0.000   0.000   0.000   5.011  -0.000   0.000  -0.000
 -0.000   0.000  -0.000   0.000   0.000  -0.000   0.000   0.000   2.933   0.000   0.000  -0.000   0.000   0.000   5.011  -0.000
 -0.000  -0.000  -0.000  -0.000   5.011   0.000   0.000  -0.000   0.000   0.000   8.606  -0.000   0.000  -0.000   0.000   0.000
 -0.000   0.000  -0.000   0.000   0.000   0.000   5.011   0.000   0.000  -0.000   0.000   0.000   8.606  -0.000   0.000  -0.000
 -0.000   0.000  -0.000   0.000   0.000  -0.000   0.000   0.000   5.011   0.000   0.000  -0.000   0.000   0.000   8.606  -0.000
  0.000   0.000   0.000   0.000  -0.000   0.000   0.000   0.000  -0.000  -0.000  -0.000   0.000   0.000   0.000  -0.000  -0.000
  0.000   0.000   0.000   0.000  -0.000   0.000  -0.000  -0.000   0.000   0.000  -0.000   0.000  -0.000  -0.000   0.000   0.000
 -0.000  -0.000  -0.000  -0.000   0.000   0.000  -0.000   0.000   0.000  -0.000   0.000   0.000  -0.000   0.000   0.000  -0.000
  0.000   0.000   0.000   0.000   0.000   0.000  -0.000   0.000  -0.000   0.000   0.000   0.000  -0.000   0.000  -0.000   0.000
 -0.000   0.000  -0.000   0.000   0.000   0.000  -0.000   0.000  -0.000   0.000   0.000   0.000  -0.000  -0.000  -0.000   0.000
 total augmentation occupancy for first ion, spin component:           1
  2.000   0.000   0.000   0.000   0.000   0.000   0.000   0.000   0.000   0.000   0.000   0.000   0.000
  0.000   0.000   0.000   0.000   0.000   0.000   0.000   0.000   0.000   0.000   0.000   0.000   0.000
  0.000   0.000   0.667   0.000   0.000   0.000   0.000   0.000   0.000   0.000   0.000   0.000   0.000
  0.000   0.000   0.000   0.667   0.000   0.000   0.000   0.000   0.000   0.000   0.000   0.000   0.000
  0.000   0.000   0.000   0.000   0.667   0.000   0.000   0.000   0.000   0.000   0.000   0.000   0.000
  0.000   0.000   0.000   0.000   0.000   0.000   0.000   0.000   0.000   0.000   0.000   0.000   0.000
  0.000   0.000   0.000   0.000   0.000   0.000   0.000   0.000   0.000   0.000   0.000   0.000   0.000
  0.000   0.000   0.000   0.000   0.000   0.000   0.000   0.000   0.000   0.000   0.000   0.000   0.000
  0.000   0.000   0.000   0.000   0.000   0.000   0.000   0.000   0.000   0.000   0.000   0.000   0.000
  0.000   0.000   0.000   0.000   0.000   0.000   0.000   0.000   0.000   0.000   0.000   0.000   0.000
  0.000   0.000   0.000   0.000   0.000   0.000   0.000   0.000   0.000   0.000   0.000   0.000   0.000
  0.000   0.000   0.000   0.000   0.000   0.000   0.000   0.000   0.000   0.000   0.000   0.000   0.000
  0.000   0.000   0.000   0.000   0.000   0.000   0.000   0.000   0.000   0.000   0.000   0.000   0.000
 total augmentation occupancy for first ion, spin component:           2
  0.000   0.000   0.000   0.000   0.000   0.000   0.000   0.000   0.000   0.000   0.000   0.000   0.000
  0.000   0.000   0.000   0.000   0.000   0.000   0.000   0.000   0.000   0.000   0.000   0.000   0.000
  0.000   0.000   0.000   0.000   0.000   0.000   0.000   0.000   0.000   0.000   0.000   0.000   0.000
  0.000   0.000   0.000   0.000   0.000   0.000   0.000   0.000   0.000   0.000   0.000   0.000   0.000
  0.000   0.000   0.000   0.000   0.000   0.000   0.000   0.000   0.000   0.000   0.000   0.000   0.000
  0.000   0.000   0.000   0.000   0.000   0.000   0.000   0.000   0.000   0.000   0.000   0.000   0.000
  0.000   0.000   0.000   0.000   0.000   0.000   0.000   0.000   0.000   0.000   0.000   0.000   0.000
  0.000   0.000   0.000   0.000   0.000   0.000   0.000   0.000   0.000   0.000   0.000   0.000   0.000
  0.000   0.000   0.000   0.000   0.000   0.000   0.000   0.000   0.000   0.000   0.000   0.000   0.000
  0.000   0.000   0.000   0.000   0.000   0.000   0.000   0.000   0.000   0.000   0.000   0.000   0.000
  0.000   0.000   0.000   0.000   0.000   0.000   0.000   0.000   0.000   0.000   0.000   0.000   0.000
  0.000   0.000   0.000   0.000   0.000   0.000   0.000   0.000   0.000   0.000   0.000   0.000   0.000
  0.000   0.000   0.000   0.000   0.000   0.000   0.000   0.000   0.000   0.000   0.000   0.000   0.000


------------------------ aborting loop because EDIFF is reached ----------------------------------------


    CHARGE:  cpu time    0.0207: real time    0.0209
    FORLOC:  cpu time    0.0009: real time    0.0009
    FORHF :  cpu time   35.2970: real time   35.3125
    FORNL :  cpu time    0.0940: real time    0.0943
    FORCOR:  cpu time    0.3473: real time    0.3484
    FORHAR:  cpu time    0.0046: real time    0.0046
    OFIELD:  cpu time    0.0002: real time    0.0002

 VOLUME and BASIS-vectors are now :
 -----------------------------------------------------------------------------
  energy-cutoff  :      450.00
  volume of cell :       44.68
      direct lattice vectors                 reciprocal lattice vectors
     0.000000000  2.816500000  2.816500000    -0.177525297  0.177525297  0.177525297
     2.816500000  0.000000000  2.816500000     0.177525297 -0.177525297  0.177525297
     2.816500000  2.816500000  0.000000000     0.177525297  0.177525297 -0.177525297

  length of vectors
     3.983132498  3.983132498  3.983132498     0.307482835  0.307482835  0.307482835


 FORCES acting on ions
    electron-ion (+dipol)            ewald-force                    non-local-force                 convergence-correction
 -----------------------------------------------------------------------------------------------
   0.190E-05 0.165E-05 0.148E-05   0.204E-14 0.421E-14 0.352E-14   0.173E-16 0.208E-16 0.165E-16   0.149E-06 -.373E-06 -.557E-07
   0.536E-06 0.152E-05 0.566E-06   -.214E-14 -.407E-14 -.341E-14   -.173E-16 -.173E-16 -.234E-16   -.311E-06 0.476E-06 -.157E-06
 -----------------------------------------------------------------------------------------------
   0.244E-05 0.317E-05 0.205E-05   -.101E-15 0.144E-15 0.110E-15   0.000E+00 0.347E-17 -.694E-17   -.162E-06 0.103E-06 -.213E-06
 
 
 POSITION                                       TOTAL-FORCE (eV/Angst)
 -----------------------------------------------------------------------------------
      0.00000      0.00000      0.00000        -0.000000     -0.000000     -0.000000
      1.40825      1.40825      1.40825         0.000000      0.000000      0.000000
 -----------------------------------------------------------------------------------
    total drift:                                0.000002      0.000003      0.000002


--------------------------------------------------------------------------------------------------------



  FREE ENERGIE OF THE ION-ELECTRON SYSTEM (eV)
  ---------------------------------------------------
  free  energy   TOTEN  =       -10.46829371 eV

  energy  without entropy=      -10.46829371  energy(sigma->0) =      -10.46829371
 


--------------------------------------------------------------------------------------------------------


    POTLOK:  cpu time    0.3426: real time    0.3427


--------------------------------------------------------------------------------------------------------


     LOOP+:  cpu time 1750.1434: real time 1751.1364
    4ORBIT:  cpu time    0.0000: real time    0.0000

 total amount of memory used by VASP MPI-rank0   106180. kBytes
=======================================================================

   base      :      30000. kBytes
   nonl-proj :       3919. kBytes
   fftplans  :       1194. kBytes
   grid      :       2064. kBytes
   one-center:         16. kBytes
   HF        :         33. kBytes
   nonlr-proj:       1211. kBytes
   wavefun   :      67743. kBytes
 
  
  
 General timing and accounting informations for this job:
 ========================================================
  
                  Total CPU time used (sec):     1784.022
                            User time (sec):     1783.454
                          System time (sec):        0.568
                         Elapsed time (sec):     1785.492
  
                   Maximum memory used (kb):      372392.
                   Average memory used (kb):           0.
  
                          Minor page faults:        93390
                          Major page faults:            0
                 Voluntary context switches:         1635
