 vasp.5.4.4.18Apr17-6-g9f103f2a35 (build Nov 08 2017 12:56:59) complex          
  
 executed on             LinuxIFC date 2020.06.23  09:52:07
 running on   56 total cores
 distrk:  each k-point on   56 cores,    1 groups
 distr:  one band on NCORES_PER_BAND=   1 cores,   56 groups


--------------------------------------------------------------------------------------------------------


 INCAR:
 POTCAR:    PAW_PBE Ge 05Jan2001                  

 ----------------------------------------------------------------------------- 
|                                                                             |
|           W    W    AA    RRRRR   N    N  II  N    N   GGGG   !!!           |
|           W    W   A  A   R    R  NN   N  II  NN   N  G    G  !!!           |
|           W    W  A    A  R    R  N N  N  II  N N  N  G       !!!           |
|           W WW W  AAAAAA  RRRRR   N  N N  II  N  N N  G  GGG   !            |
|           WW  WW  A    A  R   R   N   NN  II  N   NN  G    G                |
|           W    W  A    A  R    R  N    N  II  N    N   GGGG   !!!           |
|                                                                             |
|      For optimal performance we recommend to set                            |
|        NCORE= 4 - approx SQRT( number of cores)                             |
|      NCORE specifies how many cores store one orbital (NPAR=cpu/NCORE).     |
|      This setting can  greatly improve the performance of VASP for DFT.     |
|      The default,   NCORE=1            might be grossly inefficient         |
|      on modern multi-core architectures or massively parallel machines.     |
|      Do your own testing !!!!                                               |
|      Unfortunately you need to use the default for GW and RPA calculations. |
|      (for HF NCORE is supported but not extensively tested yet)             |
|                                                                             |
 ----------------------------------------------------------------------------- 

 POTCAR:    PAW_PBE Ge 05Jan2001                  
   VRHFIN =Ge: s2p2                                                             
   LEXCH  = PE                                                                  
   EATOM  =   104.9960 eV,    7.7170 Ry                                         
                                                                                
   TITEL  = PAW_PBE Ge 05Jan2001                                                
   LULTRA =        F    use ultrasoft PP ?                                      
   IUNSCR =        1    unscreen: 0-lin 1-nonlin 2-no                           
   RPACOR =    2.170    partial core radius                                     
   POMASS =   72.610; ZVAL   =    4.000    mass and valenz                      
   RCORE  =    2.300    outmost cutoff radius                                   
   RWIGS  =    2.300; RWIGS  =    1.217    wigner-seitz radius (au A)           
   ENMAX  =  173.807; ENMIN  =  130.355 eV                                      
   ICORE  =        3    local potential                                         
   LCOR   =        T    correct aug charges                                     
   LPAW   =        T    paw PP                                                  
   EAUG   =  385.843                                                            
   DEXC   =    0.000                                                            
   RMAX   =    2.342    core radius for proj-oper                               
   RAUG   =    1.300    factor for augmentation sphere                          
   RDEP   =    2.318    radius for radial grids                                 
   RDEPT  =    2.103    core radius for aug-charge                              
                                                                                
   Atomic configuration                                                         
   10 entries                                                                   
     n  l   j            E        occ.                                          
     1  0  0.50    -10959.8463   2.0000                                         
     2  0  0.50     -1371.6056   2.0000                                         
     2  1  1.50     -1198.4791   6.0000                                         
     3  0  0.50      -168.4733   2.0000                                         
     3  1  1.50      -115.6019   6.0000                                         
     3  2  2.50       -29.3106  10.0000                                         
     4  0  0.50       -11.7309   2.0000                                         
     4  1  0.50        -3.8952   2.0000                                         
     4  2  1.50        -4.0817   0.0000                                         
     4  3  2.50        -4.0817   0.0000                                         
   Description                                                                  
     l       E           TYP  RCUT    TYP  RCUT                                 
     0    -11.7309493     23  2.300                                             
     0     -7.4578696     23  2.300                                             
     1     -3.8952261     23  2.300                                             
     1      6.1178114     23  2.300                                             
     2     -4.0817478     23  2.300                                             
     3     -1.3605826      7  2.300                                             
  local pseudopotential read in
  partial core-charges read in
  partial kinetic energy density read in
  atomic valenz-charges read in
  non local Contribution for L=           0  read in
    real space projection operators read in
  non local Contribution for L=           0  read in
    real space projection operators read in
  non local Contribution for L=           1  read in
    real space projection operators read in
  non local Contribution for L=           1  read in
    real space projection operators read in
  non local Contribution for L=           2  read in
    real space projection operators read in
    PAW grid and wavefunctions read in
 
   number of l-projection  operators is LMAX  =           5
   number of lm-projection operators is LMMAX =          13
 
  PAW_PBE Ge 05Jan2001                  :
 energy of atom  1       EATOM= -104.9960
 kinetic energy error for atom=    0.0003 (will be added to EATOM!!)
 
 
 POSCAR: Ge                                      
  positions in direct lattice
  No initial velocities read in
 exchange correlation table for  LEXCH =        8
   RHO(1)=    0.500       N(1)  =     2000
   RHO(2)=  100.500       N(2)  =     4000
 


--------------------------------------------------------------------------------------------------------


 ion  position               nearest neighbor table
   1  0.000  0.000  0.000-   2 2.44   2 2.44   2 2.44   2 2.44
   2  0.250  0.250  0.250-   1 2.44   1 2.44   1 2.44   1 2.44
 
  LATTYP: Found a face centered cubic cell.
 ALAT       =     5.6330000000
  
  Lattice vectors:
  
 A1 = (   0.0000000000,   2.8165000000,   2.8165000000)
 A2 = (   2.8165000000,   0.0000000000,   2.8165000000)
 A3 = (   2.8165000000,   2.8165000000,   0.0000000000)


Analysis of symmetry for initial positions (statically):
=====================================================================
 Subroutine PRICEL returns:
 Original cell was already a primitive cell.
 

 Routine SETGRP: Setting up the symmetry group for a 
 face centered cubic supercell.


 Subroutine GETGRP returns: Found 48 space group operations
 (whereof 24 operations were pure point group operations)
 out of a pool of 48 trial point group operations.


The static configuration has the point symmetry T_d .
 The point group associated with its full space group is O_h .


Analysis of symmetry for dynamics (positions and initial velocities):
=====================================================================
 Subroutine PRICEL returns:
 Original cell was already a primitive cell.
 

 Routine SETGRP: Setting up the symmetry group for a 
 face centered cubic supercell.


 Subroutine GETGRP returns: Found 48 space group operations
 (whereof 24 operations were pure point group operations)
 out of a pool of 48 trial point group operations.


The dynamic configuration has the point symmetry T_d .
 The point group associated with its full space group is O_h .


 Subroutine INISYM returns: Found 48 space group operations
 (whereof 24 operations are pure point group operations),
 and found     1 'primitive' translations

 
 
 KPOINTS: Automatically generated mesh            
  k-points in reciprocal lattice
Space group operators:
 irot       det(A)        alpha          n_x          n_y          n_z        tau_x        tau_y        tau_z
    1     1.000000     0.000000     1.000000     0.000000     0.000000     0.000000     0.000000     0.000000
    2     1.000000   120.000000    -0.577350    -0.577350    -0.577350     0.000000     0.000000     0.000000
    3     1.000000   120.000000     0.577350     0.577350     0.577350     0.000000     0.000000     0.000000
    4    -1.000000    90.000000     0.000000     0.000000    -1.000000     0.000000     0.000000     0.000000
    5    -1.000000   180.000000     0.000000     0.707107     0.707107     0.000000     0.000000     0.000000
    6    -1.000000    90.000000     0.000000     1.000000     0.000000     0.000000     0.000000     0.000000
    7     1.000000   180.000000     0.000000     0.000000     1.000000     0.000000     0.000000     0.000000
    8     1.000000   120.000000    -0.577350     0.577350     0.577350     0.000000     0.000000     0.000000
    9     1.000000   120.000000    -0.577350     0.577350    -0.577350     0.000000     0.000000     0.000000
   10    -1.000000    90.000000     0.000000     0.000000     1.000000     0.000000     0.000000     0.000000
   11    -1.000000    90.000000    -1.000000     0.000000     0.000000     0.000000     0.000000     0.000000
   12    -1.000000   180.000000     0.707107     0.000000     0.707107     0.000000     0.000000     0.000000
   13     1.000000   120.000000     0.577350    -0.577350     0.577350     0.000000     0.000000     0.000000
   14     1.000000   120.000000    -0.577350    -0.577350     0.577350     0.000000     0.000000     0.000000
   15     1.000000   180.000000     1.000000     0.000000     0.000000     0.000000     0.000000     0.000000
   16    -1.000000    90.000000     0.000000    -1.000000     0.000000     0.000000     0.000000     0.000000
   17    -1.000000   180.000000     0.707107     0.707107     0.000000     0.000000     0.000000     0.000000
   18    -1.000000    90.000000     1.000000     0.000000     0.000000     0.000000     0.000000     0.000000
   19     1.000000   120.000000     0.577350    -0.577350    -0.577350     0.000000     0.000000     0.000000
   20     1.000000   180.000000     0.000000     1.000000     0.000000     0.000000     0.000000     0.000000
   21     1.000000   120.000000     0.577350     0.577350    -0.577350     0.000000     0.000000     0.000000
   22    -1.000000   180.000000     0.000000    -0.707107     0.707107     0.000000     0.000000     0.000000
   23    -1.000000   180.000000     0.707107    -0.707107     0.000000     0.000000     0.000000     0.000000
   24    -1.000000   180.000000     0.707107     0.000000    -0.707107     0.000000     0.000000     0.000000
   25    -1.000000     0.000000     1.000000     0.000000     0.000000     0.250000     0.250000     0.250000
   26    -1.000000   120.000000    -0.577350    -0.577350    -0.577350     0.250000     0.250000     0.250000
   27    -1.000000   120.000000     0.577350     0.577350     0.577350     0.250000     0.250000     0.250000
   28     1.000000    90.000000     0.000000     0.000000    -1.000000     0.250000     0.250000     0.250000
   29     1.000000   180.000000     0.000000     0.707107     0.707107     0.250000     0.250000     0.250000
   30     1.000000    90.000000     0.000000     1.000000     0.000000     0.250000     0.250000     0.250000
   31    -1.000000   180.000000     0.000000     0.000000     1.000000     0.250000     0.250000     0.250000
   32    -1.000000   120.000000    -0.577350     0.577350     0.577350     0.250000     0.250000     0.250000
   33    -1.000000   120.000000    -0.577350     0.577350    -0.577350     0.250000     0.250000     0.250000
   34     1.000000    90.000000     0.000000     0.000000     1.000000     0.250000     0.250000     0.250000
   35     1.000000    90.000000    -1.000000     0.000000     0.000000     0.250000     0.250000     0.250000
   36     1.000000   180.000000     0.707107     0.000000     0.707107     0.250000     0.250000     0.250000
   37    -1.000000   120.000000     0.577350    -0.577350     0.577350     0.250000     0.250000     0.250000
   38    -1.000000   120.000000    -0.577350    -0.577350     0.577350     0.250000     0.250000     0.250000
   39    -1.000000   180.000000     1.000000     0.000000     0.000000     0.250000     0.250000     0.250000
   40     1.000000    90.000000     0.000000    -1.000000     0.000000     0.250000     0.250000     0.250000
   41     1.000000   180.000000     0.707107     0.707107     0.000000     0.250000     0.250000     0.250000
   42     1.000000    90.000000     1.000000     0.000000     0.000000     0.250000     0.250000     0.250000
   43    -1.000000   120.000000     0.577350    -0.577350    -0.577350     0.250000     0.250000     0.250000
   44    -1.000000   180.000000     0.000000     1.000000     0.000000     0.250000     0.250000     0.250000
   45    -1.000000   120.000000     0.577350     0.577350    -0.577350     0.250000     0.250000     0.250000
   46     1.000000   180.000000     0.000000    -0.707107     0.707107     0.250000     0.250000     0.250000
   47     1.000000   180.000000     0.707107    -0.707107     0.000000     0.250000     0.250000     0.250000
   48     1.000000   180.000000     0.707107     0.000000    -0.707107     0.250000     0.250000     0.250000

 ----------------------------------------------------------------------------- 
|                                                                             |
|           W    W    AA    RRRRR   N    N  II  N    N   GGGG   !!!           |
|           W    W   A  A   R    R  NN   N  II  NN   N  G    G  !!!           |
|           W    W  A    A  R    R  N N  N  II  N N  N  G       !!!           |
|           W WW W  AAAAAA  RRRRR   N  N N  II  N  N N  G  GGG   !            |
|           WW  WW  A    A  R   R   N   NN  II  N   NN  G    G                |
|           W    W  A    A  R    R  N    N  II  N    N   GGGG   !!!           |
|                                                                             |
|      Your generating k-point grid is not commensurate to the symmetry       |
|      of the lattice.  This can cause   slow convergence with respect        |
|      to k-points for HF type calculations                                   |
|      suggested SOLUTIONS:                                                   |
|       ) if not already the case, use automatic k-point generation           |
|       ) shift your grid to Gamma (G) (e.g. required for hex or fcc lattice) |
|                                                                             |
 ----------------------------------------------------------------------------- 

 
 Subroutine IBZKPT_HF returns following result:
 ==============================================
 
 Found    164 k-points in 1st BZ
 the following    164 k-points will be used (e.g. in the exchange kernel)
 Following reciprocal coordinates:   # in IRBZ
  0.000000  0.000000  0.000000    0.01562500   1 t-inv F
  0.250000  0.000000  0.000000    0.01562500   2 t-inv F
  0.500000  0.000000  0.000000    0.01562500   3 t-inv F
  0.250000  0.250000  0.000000    0.01562500   4 t-inv F
  0.500000  0.250000  0.000000    0.01562500   5 t-inv F
 -0.250000  0.250000  0.000000    0.01562500   6 t-inv F
  0.500000  0.500000  0.000000    0.01562500   7 t-inv F
 -0.250000  0.500000  0.250000    0.01562500   8 t-inv F
  0.500000  0.500000  0.500000    0.00000000   9 t-inv F
  0.489796  0.489796  0.489796    0.00000000  10 t-inv F
  0.479592  0.479592  0.479592    0.00000000  11 t-inv F
  0.469388  0.469388  0.469388    0.00000000  12 t-inv F
  0.459184  0.459184  0.459184    0.00000000  13 t-inv F
  0.448980  0.448980  0.448980    0.00000000  14 t-inv F
  0.438776  0.438776  0.438776    0.00000000  15 t-inv F
  0.428571  0.428571  0.428571    0.00000000  16 t-inv F
  0.418367  0.418367  0.418367    0.00000000  17 t-inv F
  0.408163  0.408163  0.408163    0.00000000  18 t-inv F
  0.397959  0.397959  0.397959    0.00000000  19 t-inv F
  0.387755  0.387755  0.387755    0.00000000  20 t-inv F
  0.377551  0.377551  0.377551    0.00000000  21 t-inv F
  0.367347  0.367347  0.367347    0.00000000  22 t-inv F
  0.357143  0.357143  0.357143    0.00000000  23 t-inv F
  0.346939  0.346939  0.346939    0.00000000  24 t-inv F
  0.336735  0.336735  0.336735    0.00000000  25 t-inv F
  0.326531  0.326531  0.326531    0.00000000  26 t-inv F
  0.316327  0.316327  0.316327    0.00000000  27 t-inv F
  0.306122  0.306122  0.306122    0.00000000  28 t-inv F
  0.295918  0.295918  0.295918    0.00000000  29 t-inv F
  0.285714  0.285714  0.285714    0.00000000  30 t-inv F
  0.275510  0.275510  0.275510    0.00000000  31 t-inv F
  0.265306  0.265306  0.265306    0.00000000  32 t-inv F
  0.255102  0.255102  0.255102    0.00000000  33 t-inv F
  0.244898  0.244898  0.244898    0.00000000  34 t-inv F
  0.234694  0.234694  0.234694    0.00000000  35 t-inv F
  0.224490  0.224490  0.224490    0.00000000  36 t-inv F
  0.214286  0.214286  0.214286    0.00000000  37 t-inv F
  0.204082  0.204082  0.204082    0.00000000  38 t-inv F
  0.193878  0.193878  0.193878    0.00000000  39 t-inv F
  0.183673  0.183673  0.183673    0.00000000  40 t-inv F
  0.173469  0.173469  0.173469    0.00000000  41 t-inv F
  0.163265  0.163265  0.163265    0.00000000  42 t-inv F
  0.153061  0.153061  0.153061    0.00000000  43 t-inv F
  0.142857  0.142857  0.142857    0.00000000  44 t-inv F
  0.132653  0.132653  0.132653    0.00000000  45 t-inv F
  0.122449  0.122449  0.122449    0.00000000  46 t-inv F
  0.112245  0.112245  0.112245    0.00000000  47 t-inv F
  0.102041  0.102041  0.102041    0.00000000  48 t-inv F
  0.091837  0.091837  0.091837    0.00000000  49 t-inv F
  0.081633  0.081633  0.081633    0.00000000  50 t-inv F
  0.071429  0.071429  0.071429    0.00000000  51 t-inv F
  0.061224  0.061224  0.061224    0.00000000  52 t-inv F
  0.051020  0.051020  0.051020    0.00000000  53 t-inv F
  0.040816  0.040816  0.040816    0.00000000  54 t-inv F
  0.030612  0.030612  0.030612    0.00000000  55 t-inv F
  0.020408  0.020408  0.020408    0.00000000  56 t-inv F
  0.010204  0.010204  0.010204    0.00000000  57 t-inv F
  0.000000  0.000000  0.000000    0.00000000  58 t-inv F
  0.000000  0.000000  0.000000    0.00000000  59 t-inv F
  0.010204  0.000000  0.010204    0.00000000  60 t-inv F
  0.020408  0.000000  0.020408    0.00000000  61 t-inv F
  0.030612  0.000000  0.030612    0.00000000  62 t-inv F
  0.040816  0.000000  0.040816    0.00000000  63 t-inv F
  0.051020  0.000000  0.051020    0.00000000  64 t-inv F
  0.061224  0.000000  0.061224    0.00000000  65 t-inv F
  0.071429  0.000000  0.071429    0.00000000  66 t-inv F
  0.081633  0.000000  0.081633    0.00000000  67 t-inv F
  0.091837  0.000000  0.091837    0.00000000  68 t-inv F
  0.102041  0.000000  0.102041    0.00000000  69 t-inv F
  0.112245  0.000000  0.112245    0.00000000  70 t-inv F
  0.122449  0.000000  0.122449    0.00000000  71 t-inv F
  0.132653  0.000000  0.132653    0.00000000  72 t-inv F
  0.142857  0.000000  0.142857    0.00000000  73 t-inv F
  0.153061  0.000000  0.153061    0.00000000  74 t-inv F
  0.163265  0.000000  0.163265    0.00000000  75 t-inv F
  0.173469  0.000000  0.173469    0.00000000  76 t-inv F
  0.183673  0.000000  0.183673    0.00000000  77 t-inv F
  0.193878  0.000000  0.193878    0.00000000  78 t-inv F
  0.204082  0.000000  0.204082    0.00000000  79 t-inv F
  0.214286  0.000000  0.214286    0.00000000  80 t-inv F
  0.224490  0.000000  0.224490    0.00000000  81 t-inv F
  0.234694  0.000000  0.234694    0.00000000  82 t-inv F
  0.244898  0.000000  0.244898    0.00000000  83 t-inv F
  0.255102  0.000000  0.255102    0.00000000  84 t-inv F
  0.265306  0.000000  0.265306    0.00000000  85 t-inv F
  0.275510  0.000000  0.275510    0.00000000  86 t-inv F
  0.285714  0.000000  0.285714    0.00000000  87 t-inv F
  0.295918  0.000000  0.295918    0.00000000  88 t-inv F
  0.306122  0.000000  0.306122    0.00000000  89 t-inv F
  0.316327  0.000000  0.316327    0.00000000  90 t-inv F
  0.326531  0.000000  0.326531    0.00000000  91 t-inv F
  0.336735  0.000000  0.336735    0.00000000  92 t-inv F
  0.346939  0.000000  0.346939    0.00000000  93 t-inv F
  0.357143  0.000000  0.357143    0.00000000  94 t-inv F
  0.367347  0.000000  0.367347    0.00000000  95 t-inv F
  0.377551  0.000000  0.377551    0.00000000  96 t-inv F
  0.387755  0.000000  0.387755    0.00000000  97 t-inv F
  0.397959  0.000000  0.397959    0.00000000  98 t-inv F
  0.408163  0.000000  0.408163    0.00000000  99 t-inv F
  0.418367  0.000000  0.418367    0.00000000 100 t-inv F
  0.428571  0.000000  0.428571    0.00000000 101 t-inv F
  0.438776  0.000000  0.438776    0.00000000 102 t-inv F
  0.448980  0.000000  0.448980    0.00000000 103 t-inv F
  0.459184  0.000000  0.459184    0.00000000 104 t-inv F
  0.469388  0.000000  0.469388    0.00000000 105 t-inv F
  0.479592  0.000000  0.479592    0.00000000 106 t-inv F
  0.489796  0.000000  0.489796    0.00000000 107 t-inv F
  0.500000  0.000000  0.500000    0.00000000 108 t-inv F
  0.000000  0.250000  0.000000    0.01562500   2 t-inv F
  0.000000  0.000000  0.250000    0.01562500   2 t-inv F
 -0.250000 -0.250000 -0.250000    0.01562500   2 t-inv F
 -0.250000  0.000000  0.000000    0.01562500   2 t-inv F
  0.000000 -0.250000  0.000000    0.01562500   2 t-inv F
  0.000000  0.000000 -0.250000    0.01562500   2 t-inv F
  0.250000  0.250000  0.250000    0.01562500   2 t-inv F
  0.000000  0.500000  0.000000    0.01562500   3 t-inv F
  0.000000  0.000000  0.500000    0.01562500   3 t-inv F
 -0.500000 -0.500000 -0.500000    0.01562500   3 t-inv F
  0.000000  0.250000  0.250000    0.01562500   4 t-inv F
  0.250000  0.000000  0.250000    0.01562500   4 t-inv F
 -0.250000 -0.250000  0.000000    0.01562500   4 t-inv F
 -0.250000  0.000000 -0.250000    0.01562500   4 t-inv F
  0.000000 -0.250000 -0.250000    0.01562500   4 t-inv F
  0.000000  0.500000  0.250000    0.01562500   5 t-inv F
  0.250000  0.000000  0.500000    0.01562500   5 t-inv F
 -0.250000 -0.250000  0.250000    0.01562500   5 t-inv F
 -0.500000 -0.250000 -0.500000    0.01562500   5 t-inv F
  0.250000  0.500000  0.000000    0.01562500   5 t-inv F
  0.250000 -0.250000 -0.250000    0.01562500   5 t-inv F
 -0.500000 -0.500000 -0.250000    0.01562500   5 t-inv F
  0.000000  0.250000  0.500000    0.01562500   5 t-inv F
 -0.250000  0.250000 -0.250000    0.01562500   5 t-inv F
 -0.250000 -0.500000 -0.500000    0.01562500   5 t-inv F
  0.500000  0.000000  0.250000    0.01562500   5 t-inv F
 -0.500000 -0.250000  0.000000    0.01562500   5 t-inv F
  0.000000 -0.500000 -0.250000    0.01562500   5 t-inv F
 -0.250000  0.000000 -0.500000    0.01562500   5 t-inv F
  0.250000  0.250000 -0.250000    0.01562500   5 t-inv F
  0.500000  0.250000  0.500000    0.01562500   5 t-inv F
 -0.250000 -0.500000  0.000000    0.01562500   5 t-inv F
 -0.250000  0.250000  0.250000    0.01562500   5 t-inv F
  0.500000  0.500000  0.250000    0.01562500   5 t-inv F
  0.000000 -0.250000 -0.500000    0.01562500   5 t-inv F
  0.250000 -0.250000  0.250000    0.01562500   5 t-inv F
  0.250000  0.500000  0.500000    0.01562500   5 t-inv F
 -0.500000  0.000000 -0.250000    0.01562500   5 t-inv F
  0.000000 -0.250000  0.250000    0.01562500   6 t-inv F
  0.250000  0.000000 -0.250000    0.01562500   6 t-inv F
 -0.250000 -0.250000 -0.500000    0.01562500   6 t-inv F
  0.250000  0.500000  0.250000    0.01562500   6 t-inv F
  0.250000 -0.250000  0.000000    0.01562500   6 t-inv F
 -0.500000 -0.250000 -0.250000    0.01562500   6 t-inv F
  0.250000  0.250000  0.500000    0.01562500   6 t-inv F
  0.000000  0.250000 -0.250000    0.01562500   6 t-inv F
 -0.250000 -0.500000 -0.250000    0.01562500   6 t-inv F
  0.500000  0.250000  0.250000    0.01562500   6 t-inv F
 -0.250000  0.000000  0.250000    0.01562500   6 t-inv F
  0.000000  0.500000  0.500000    0.01562500   7 t-inv F
  0.500000  0.000000  0.500000    0.01562500   7 t-inv F
  0.250000 -0.250000  0.500000    0.01562500   8 t-inv F
  0.500000  0.250000 -0.250000    0.01562500   8 t-inv F
 -0.500000 -0.250000 -0.750000    0.01562500   8 t-inv F
  0.250000 -0.500000 -0.250000    0.01562500   8 t-inv F
 -0.250000  0.250000 -0.500000    0.01562500   8 t-inv F


--------------------------------------------------------------------------------------------------------




 Dimension of arrays:
   k-points           NKPTS =    108   k-points in BZ     NKDIM =    164   number of bands    NBANDS=     56
   number of dos      NEDOS =    301   number of ions     NIONS =      2
   non local maximal  LDIM  =      5   non local SUM 2l+1 LMDIM =     13
   total plane-waves  NPLWV =  13824
   max r-space proj   IRMAX =      1   max aug-charges    IRDMAX=  17012
   dimension x,y,z NGX =    24 NGY =   24 NGZ =   24
   dimension x,y,z NGXF=    48 NGYF=   48 NGZF=   48
   support grid    NGXF=    48 NGYF=   48 NGZF=   48
   ions per type =               2
   NGX,Y,Z   is equivalent  to a cutoff of  10.02, 10.02, 10.02 a.u.
   NGXF,Y,Z  is equivalent  to a cutoff of  20.03, 20.03, 20.03 a.u.

 SYSTEM =  unknown system                          
 POSCAR =  Ge                                      

 Startparameter for this run:
   NWRITE =      2    write-flag & timer
   PREC   = n         normal or accurate (medium, high low for compatibility)
   ISTART =      1    job   : 0-new  1-cont  2-samecut
   ICHARG =     11    charge: 1-file 2-atom 10-const
   ISPIN  =      1    spin polarized calculation?
   LNONCOLLINEAR =      F non collinear calculations
   LSORBIT =      F    spin-orbit coupling
   INIWAV =      1    electr: 0-lowe 1-rand  2-diag
   LASPH  =      F    aspherical Exc in radial PAW
   METAGGA=      F    non-selfconsistent MetaGGA calc.

 Electronic Relaxation 1
   ENCUT  =  450.0 eV  33.07 Ry    5.75 a.u.   6.89  6.89  6.89*2*pi/ulx,y,z
   ENINI  =  450.0     initial cutoff
   ENAUG  =  385.8 eV  augmentation charge cutoff
   NELM   =     60;   NELMIN=  2; NELMDL=  0     # of ELM steps 
   EDIFF  = 0.1E-03   stopping-criterion for ELM
   LREAL  =      F    real-space projection
   NLSPLINE    = F    spline interpolate recip. space projectors
   LCOMPAT=      F    compatible to vasp.4.4
   GGA_COMPAT  = T    GGA compatible to vasp.4.4-vasp.4.6
   LMAXPAW     = -100 max onsite density
   LMAXMIX     =    2 max onsite mixed and CHGCAR
   VOSKOWN=      0    Vosko Wilk Nusair interpolation
   ROPT   =    0.00000
 Ionic relaxation
   EDIFFG = 0.1E-02   stopping-criterion for IOM
   NSW    =      0    number of steps for IOM
   NBLOCK =      1;   KBLOCK =      1    inner block; outer block 
   IBRION =     -1    ionic relax: 0-MD 1-quasi-New 2-CG
   NFREE  =      0    steps in history (QN), initial steepest desc. (CG)
   ISIF   =      0    stress and relaxation
   IWAVPR =     10    prediction:  0-non 1-charg 2-wave 3-comb
   ISYM   =      3    0-nonsym 1-usesym 2-fastsym
   LCORR  =      T    Harris-Foulkes like correction to forces

   POTIM  = 0.5000    time-step for ionic-motion
   TEIN   =    0.0    initial temperature
   TEBEG  =    0.0;   TEEND  =   0.0 temperature during run
   SMASS  =  -3.00    Nose mass-parameter (am)
   estimated Nose-frequenzy (Omega)   =  0.10E-29 period in steps =****** mass=  -0.363E-27a.u.
   SCALEE = 1.0000    scale energy and forces
   NPACO  =    256;   APACO  = 16.0  distance and # of slots for P.C.
   PSTRESS=    0.0 pullay stress

  Mass of Ions in am
   POMASS =  72.61
  Ionic Valenz
   ZVAL   =   4.00
  Atomic Wigner-Seitz radii
   RWIGS  =  -1.00
  virtual crystal weights 
   VCA    =   1.00
   NELECT =       8.0000    total number of electrons
   NUPDOWN=      -1.0000    fix difference up-down

 DOS related values:
   EMIN   =  10.00;   EMAX   =-10.00  energy-range for DOS
   EFERMI =   0.00
   ISMEAR =     1;   SIGMA  =   0.05  broadening in eV -4-tet -1-fermi 0-gaus

 Electronic relaxation 2 (details)
   IALGO  =     53    algorithm
   LDIAG  =      T    sub-space diagonalisation (order eigenvalues)
   LSUBROT=      F    optimize rotation matrix (better conditioning)
   TURBO    =      0    0=normal 1=particle mesh
   IRESTART =      0    0=no restart 2=restart with 2 vectors
   NREBOOT  =      0    no. of reboots
   NMIN     =      0    reboot dimension
   EREF     =   0.00    reference energy to select bands
   IMIX   =      4    mixing-type and parameters
     AMIX     =   0.40;   BMIX     =  1.00
     AMIX_MAG =   1.60;   BMIX_MAG =  1.00
     AMIN     =   0.10
     WC   =   100.;   INIMIX=   1;  MIXPRE=   1;  MAXMIX= -45

 Intra band minimization:
   WEIMIN = 0.0000     energy-eigenvalue tresh-hold
   EBREAK =  0.45E-06  absolut break condition
   DEPER  =   0.30     relativ break condition  

   TIME   =   0.40     timestep for ELM

  volume/ion in A,a.u.               =      22.34       150.77
  Fermi-wavevector in a.u.,A,eV,Ry     =   0.922681  1.743615 11.583196  0.851341
  Thomas-Fermi vector in A             =   2.048235
 
 Write flags
   LWAVE        =      F    write WAVECAR
   LDOWNSAMPLE  =      F    k-point downsampling of WAVECAR
   LCHARG       =      F    write CHGCAR
   LVTOT        =      F    write LOCPOT, total local potential
   LVHAR        =      F    write LOCPOT, Hartree potential only
   LELF         =      F    write electronic localiz. function (ELF)
   LORBIT       =      0    0 simple, 1 ext, 2 COOP (PROOUT), +10 PAW based schemes


 Dipole corrections
   LMONO  =      F    monopole corrections only (constant potential shift)
   LDIPOL =      F    correct potential (dipole corrections)
   IDIPOL =      0    1-x, 2-y, 3-z, 4-all directions 
   EPSILON=  1.0000000 bulk dielectric constant

 Exchange correlation treatment:
   GGA     =    PE    GGA type
   LEXCH   =     8    internal setting for exchange type
   VOSKOWN=      0    Vosko Wilk Nusair interpolation
   EXXOEP  =     0    0=HF, 1=EXX-LHF (local Hartree Fock) 2=EXX OEP
   LHFCALC =     T    Hartree Fock is set to
   LSYMGRAD=     F    symmetrize gradient (conserves proper symmetry)
   PRECFOCK=normal    Normal, Fast or Accurate (Low or Medium for compatibility)
   LRHFCALC=     F    long range Hartree Fock
   LRSCOR  =     F    long range correlation only (use DFT for short range part)
   LTHOMAS =     F    Thomas Fermi screening in HF
   LMODELHF=     F    short range full HF, long range fraction AEXX
   ENCUT4O =  -1.0   cutoff for four orbital integrals eV
   LMAXFOCK=     4    L truncation for augmentation on plane wave grid
   LMAXFOCKAE=  -1    L truncation for all-electron charge restoration on plane wave grid
   NMAXFOCKAE=   1    number of basis functions for all-electron charge restoration
   LFOCKAEDFT=     F  apply the AE augmentation even for DFT
   NKREDX  =     1    reduce k-point grid by
   NKREDY  =     1    reduce k-point grid by
   NKREDZ  =     1    reduce k-point grid by
   SHIFTRED=     F    shift reduced grid of Gamma
   HFKIDENT=     F    idential grid for each k-point
   ODDONLY =     F    use only odd q-grid points
   EVENONLY=     F    use only even q-grid points
   HFALPHA =   -1.0000 decay constant for conv. correction
   MCALPHA =    0.0000 extent of test-charge in conv. correction in multipole expansion
   AEXX    =    0.2500 exact exchange contribution
   HFSCREEN=    0.2000 screening length (either q_TF or 0.3 A-1)
   HFSCREENC=   0.2000 screening length for correlation (either q_TF or 0.3 A-1)
   HFRCUT  =    0.0000 spherical cutoff for potential kernel
   ALDAX   =    0.7500 LDA exchange part
   AGGAX   =    0.7500 GGA exchange part
   ALDAC   =    1.0000 LDA correlation
   AGGAC   =    1.0000 GGA correlation
   ENCUTFOCK=  -1.0 apply spherical cutoff to Coloumb kernel
   NBANDSGWLOW=     1    first orbital included in HF term
   NBLOCK_FOCK=    64    blocking factor in FOCK_ACC
 Linear response parameters
   LEPSILON=     F    determine dielectric tensor
   LRPA    =     F    only Hartree local field effects (RPA)
   LNABLA  =     F    use nabla operator in PAW spheres
   LVEL    =     F    velocity operator in full k-point grid
   LINTERFAST=   F  fast interpolation
   KINTER  =     0    interpolate to denser k-point grid
   CSHIFT  =0.1000    complex shift for real part using Kramers Kronig
   OMEGAMAX=  -1.0    maximum frequency
   DEG_THRESHOLD= 0.2000000E-02 threshold for treating states as degnerate
   RTIME   =   -0.100 relaxation time in fs
  (WPLASMAI=    0.000 imaginary part of plasma frequency in eV, 0.658/RTIME)
   DFIELD  = 0.0000000 0.0000000 0.0000000 field for delta impulse in time
 
 Orbital magnetization related:
   ORBITALMAG=     F  switch on orbital magnetization
   LCHIMAG   =     F  perturbation theory with respect to B field
   DQ        =  0.001000  dq finite difference perturbation B field
   LLRAUG    =     F  two centre corrections for induced B field



--------------------------------------------------------------------------------------------------------


 Static calculation
 charge density and potential remain constant during run
 non-spin polarized calculation
 Conjugate gradient for all bands (Freysoldt, et al. PRB 79, 241103 (2009))
 perform sub-space diagonalisation
    before iterative eigenvector-optimisation
 no mixing
 using additional bands           52
 reciprocal scheme for non local part
 use partial core corrections
 calculate Harris-corrections to forces 
   (improved forces if not selfconsistent)
 use gradient corrections 
 WARNING: stress and forces are not correct
  (second derivative of E(xc) not defined)
 use of overlap-Matrix (Vanderbilt PP)
 Methfessel and Paxton  Order N= 1 SIGMA  =   0.05


--------------------------------------------------------------------------------------------------------


  energy-cutoff  :      450.00
  volume of cell :       44.68
      direct lattice vectors                 reciprocal lattice vectors
     0.000000000  2.816500000  2.816500000    -0.177525297  0.177525297  0.177525297
     2.816500000  0.000000000  2.816500000     0.177525297 -0.177525297  0.177525297
     2.816500000  2.816500000  0.000000000     0.177525297  0.177525297 -0.177525297

  length of vectors
     3.983132498  3.983132498  3.983132498     0.307482835  0.307482835  0.307482835


 
 old parameters found on file WAVECAR:
  energy-cutoff  :      450.00
  volume of cell :       44.68
      direct lattice vectors                 reciprocal lattice vectors
     0.000000000  2.816500000  2.816500000    -0.177525297  0.177525297  0.177525297
     2.816500000  0.000000000  2.816500000     0.177525297 -0.177525297  0.177525297
     2.816500000  2.816500000  0.000000000     0.177525297  0.177525297 -0.177525297

  length of vectors

 
 k-points in units of 2pi/SCALE and weight: Automatically generated mesh            
   0.00000000  0.00000000  0.00000000       0.016
  -0.04438132  0.04438132  0.04438132       0.125
  -0.08876265  0.08876265  0.08876265       0.062
   0.00000000  0.00000000  0.08876265       0.094
  -0.04438132  0.04438132  0.13314397       0.375
   0.08876265 -0.08876265  0.00000000       0.188
   0.00000000  0.00000000  0.17752530       0.047
   0.17752530 -0.08876265  0.00000000       0.094
   0.08876265  0.08876265  0.08876265       0.000
   0.08695117  0.08695117  0.08695117       0.000
   0.08513968  0.08513968  0.08513968       0.000
   0.08332820  0.08332820  0.08332820       0.000
   0.08151672  0.08151672  0.08151672       0.000
   0.07970524  0.07970524  0.07970524       0.000
   0.07789375  0.07789375  0.07789375       0.000
   0.07608227  0.07608227  0.07608227       0.000
   0.07427079  0.07427079  0.07427079       0.000
   0.07245931  0.07245931  0.07245931       0.000
   0.07064782  0.07064782  0.07064782       0.000
   0.06883634  0.06883634  0.06883634       0.000
   0.06702486  0.06702486  0.06702486       0.000
   0.06521337  0.06521337  0.06521337       0.000
   0.06340189  0.06340189  0.06340189       0.000
   0.06159041  0.06159041  0.06159041       0.000
   0.05977893  0.05977893  0.05977893       0.000
   0.05796744  0.05796744  0.05796744       0.000
   0.05615596  0.05615596  0.05615596       0.000
   0.05434448  0.05434448  0.05434448       0.000
   0.05253300  0.05253300  0.05253300       0.000
   0.05072151  0.05072151  0.05072151       0.000
   0.04891003  0.04891003  0.04891003       0.000
   0.04709855  0.04709855  0.04709855       0.000
   0.04528707  0.04528707  0.04528707       0.000
   0.04347558  0.04347558  0.04347558       0.000
   0.04166410  0.04166410  0.04166410       0.000
   0.03985262  0.03985262  0.03985262       0.000
   0.03804114  0.03804114  0.03804114       0.000
   0.03622965  0.03622965  0.03622965       0.000
   0.03441817  0.03441817  0.03441817       0.000
   0.03260669  0.03260669  0.03260669       0.000
   0.03079520  0.03079520  0.03079520       0.000
   0.02898372  0.02898372  0.02898372       0.000
   0.02717224  0.02717224  0.02717224       0.000
   0.02536076  0.02536076  0.02536076       0.000
   0.02354927  0.02354927  0.02354927       0.000
   0.02173779  0.02173779  0.02173779       0.000
   0.01992631  0.01992631  0.01992631       0.000
   0.01811483  0.01811483  0.01811483       0.000
   0.01630334  0.01630334  0.01630334       0.000
   0.01449186  0.01449186  0.01449186       0.000
   0.01268038  0.01268038  0.01268038       0.000
   0.01086890  0.01086890  0.01086890       0.000
   0.00905741  0.00905741  0.00905741       0.000
   0.00724593  0.00724593  0.00724593       0.000
   0.00543445  0.00543445  0.00543445       0.000
   0.00362297  0.00362297  0.00362297       0.000
   0.00181148  0.00181148  0.00181148       0.000
   0.00000000  0.00000000  0.00000000       0.000
   0.00000000  0.00000000  0.00000000       0.000
   0.00000000  0.00362297  0.00000000       0.000
   0.00000000  0.00724593  0.00000000       0.000
   0.00000000  0.01086890  0.00000000       0.000
   0.00000000  0.01449186  0.00000000       0.000
   0.00000000  0.01811483  0.00000000       0.000
   0.00000000  0.02173779  0.00000000       0.000
   0.00000000  0.02536076  0.00000000       0.000
   0.00000000  0.02898372  0.00000000       0.000
   0.00000000  0.03260669  0.00000000       0.000
   0.00000000  0.03622965  0.00000000       0.000
   0.00000000  0.03985262  0.00000000       0.000
   0.00000000  0.04347558  0.00000000       0.000
   0.00000000  0.04709855  0.00000000       0.000
   0.00000000  0.05072151  0.00000000       0.000
   0.00000000  0.05434448  0.00000000       0.000
   0.00000000  0.05796744  0.00000000       0.000
   0.00000000  0.06159041  0.00000000       0.000
   0.00000000  0.06521337  0.00000000       0.000
   0.00000000  0.06883634  0.00000000       0.000
   0.00000000  0.07245931  0.00000000       0.000
   0.00000000  0.07608227  0.00000000       0.000
   0.00000000  0.07970524  0.00000000       0.000
   0.00000000  0.08332820  0.00000000       0.000
   0.00000000  0.08695117  0.00000000       0.000
   0.00000000  0.09057413  0.00000000       0.000
   0.00000000  0.09419710  0.00000000       0.000
   0.00000000  0.09782006  0.00000000       0.000
   0.00000000  0.10144303  0.00000000       0.000
   0.00000000  0.10506599  0.00000000       0.000
   0.00000000  0.10868896  0.00000000       0.000
   0.00000000  0.11231192  0.00000000       0.000
   0.00000000  0.11593489  0.00000000       0.000
   0.00000000  0.11955785  0.00000000       0.000
   0.00000000  0.12318082  0.00000000       0.000
   0.00000000  0.12680378  0.00000000       0.000
   0.00000000  0.13042675  0.00000000       0.000
   0.00000000  0.13404971  0.00000000       0.000
   0.00000000  0.13767268  0.00000000       0.000
   0.00000000  0.14129564  0.00000000       0.000
   0.00000000  0.14491861  0.00000000       0.000
   0.00000000  0.14854158  0.00000000       0.000
   0.00000000  0.15216454  0.00000000       0.000
   0.00000000  0.15578751  0.00000000       0.000
   0.00000000  0.15941047  0.00000000       0.000
   0.00000000  0.16303344  0.00000000       0.000
   0.00000000  0.16665640  0.00000000       0.000
   0.00000000  0.17027937  0.00000000       0.000
   0.00000000  0.17390233  0.00000000       0.000
   0.00000000  0.17752530  0.00000000       0.000
 
 k-points in reciprocal lattice and weights: Automatically generated mesh            
   0.00000000  0.00000000  0.00000000       0.016
   0.25000000  0.00000000  0.00000000       0.125
   0.50000000  0.00000000  0.00000000       0.062
   0.25000000  0.25000000  0.00000000       0.094
   0.50000000  0.25000000  0.00000000       0.375
  -0.25000000  0.25000000  0.00000000       0.188
   0.50000000  0.50000000  0.00000000       0.047
  -0.25000000  0.50000000  0.25000000       0.094
   0.50000000  0.50000000  0.50000000       0.000
   0.48979592  0.48979592  0.48979592       0.000
   0.47959184  0.47959184  0.47959184       0.000
   0.46938776  0.46938776  0.46938776       0.000
   0.45918367  0.45918367  0.45918367       0.000
   0.44897959  0.44897959  0.44897959       0.000
   0.43877551  0.43877551  0.43877551       0.000
   0.42857143  0.42857143  0.42857143       0.000
   0.41836735  0.41836735  0.41836735       0.000
   0.40816327  0.40816327  0.40816327       0.000
   0.39795918  0.39795918  0.39795918       0.000
   0.38775510  0.38775510  0.38775510       0.000
   0.37755102  0.37755102  0.37755102       0.000
   0.36734694  0.36734694  0.36734694       0.000
   0.35714286  0.35714286  0.35714286       0.000
   0.34693878  0.34693878  0.34693878       0.000
   0.33673469  0.33673469  0.33673469       0.000
   0.32653061  0.32653061  0.32653061       0.000
   0.31632653  0.31632653  0.31632653       0.000
   0.30612245  0.30612245  0.30612245       0.000
   0.29591837  0.29591837  0.29591837       0.000
   0.28571429  0.28571429  0.28571429       0.000
   0.27551020  0.27551020  0.27551020       0.000
   0.26530612  0.26530612  0.26530612       0.000
   0.25510204  0.25510204  0.25510204       0.000
   0.24489796  0.24489796  0.24489796       0.000
   0.23469388  0.23469388  0.23469388       0.000
   0.22448980  0.22448980  0.22448980       0.000
   0.21428571  0.21428571  0.21428571       0.000
   0.20408163  0.20408163  0.20408163       0.000
   0.19387755  0.19387755  0.19387755       0.000
   0.18367347  0.18367347  0.18367347       0.000
   0.17346939  0.17346939  0.17346939       0.000
   0.16326531  0.16326531  0.16326531       0.000
   0.15306122  0.15306122  0.15306122       0.000
   0.14285714  0.14285714  0.14285714       0.000
   0.13265306  0.13265306  0.13265306       0.000
   0.12244898  0.12244898  0.12244898       0.000
   0.11224490  0.11224490  0.11224490       0.000
   0.10204082  0.10204082  0.10204082       0.000
   0.09183673  0.09183673  0.09183673       0.000
   0.08163265  0.08163265  0.08163265       0.000
   0.07142857  0.07142857  0.07142857       0.000
   0.06122449  0.06122449  0.06122449       0.000
   0.05102041  0.05102041  0.05102041       0.000
   0.04081633  0.04081633  0.04081633       0.000
   0.03061224  0.03061224  0.03061224       0.000
   0.02040816  0.02040816  0.02040816       0.000
   0.01020408  0.01020408  0.01020408       0.000
   0.00000000  0.00000000  0.00000000       0.000
   0.00000000  0.00000000  0.00000000       0.000
   0.01020408  0.00000000  0.01020408       0.000
   0.02040816  0.00000000  0.02040816       0.000
   0.03061224  0.00000000  0.03061224       0.000
   0.04081633  0.00000000  0.04081633       0.000
   0.05102041  0.00000000  0.05102041       0.000
   0.06122449  0.00000000  0.06122449       0.000
   0.07142857  0.00000000  0.07142857       0.000
   0.08163265  0.00000000  0.08163265       0.000
   0.09183673  0.00000000  0.09183673       0.000
   0.10204082  0.00000000  0.10204082       0.000
   0.11224490  0.00000000  0.11224490       0.000
   0.12244898  0.00000000  0.12244898       0.000
   0.13265306  0.00000000  0.13265306       0.000
   0.14285714  0.00000000  0.14285714       0.000
   0.15306122  0.00000000  0.15306122       0.000
   0.16326531  0.00000000  0.16326531       0.000
   0.17346939  0.00000000  0.17346939       0.000
   0.18367347  0.00000000  0.18367347       0.000
   0.19387755  0.00000000  0.19387755       0.000
   0.20408163  0.00000000  0.20408163       0.000
   0.21428571  0.00000000  0.21428571       0.000
   0.22448980  0.00000000  0.22448980       0.000
   0.23469388  0.00000000  0.23469388       0.000
   0.24489796  0.00000000  0.24489796       0.000
   0.25510204  0.00000000  0.25510204       0.000
   0.26530612  0.00000000  0.26530612       0.000
   0.27551020  0.00000000  0.27551020       0.000
   0.28571429  0.00000000  0.28571429       0.000
   0.29591837  0.00000000  0.29591837       0.000
   0.30612245  0.00000000  0.30612245       0.000
   0.31632653  0.00000000  0.31632653       0.000
   0.32653061  0.00000000  0.32653061       0.000
   0.33673469  0.00000000  0.33673469       0.000
   0.34693878  0.00000000  0.34693878       0.000
   0.35714286  0.00000000  0.35714286       0.000
   0.36734694  0.00000000  0.36734694       0.000
   0.37755102  0.00000000  0.37755102       0.000
   0.38775510  0.00000000  0.38775510       0.000
   0.39795918  0.00000000  0.39795918       0.000
   0.40816327  0.00000000  0.40816327       0.000
   0.41836735  0.00000000  0.41836735       0.000
   0.42857143  0.00000000  0.42857143       0.000
   0.43877551  0.00000000  0.43877551       0.000
   0.44897959  0.00000000  0.44897959       0.000
   0.45918367  0.00000000  0.45918367       0.000
   0.46938776  0.00000000  0.46938776       0.000
   0.47959184  0.00000000  0.47959184       0.000
   0.48979592  0.00000000  0.48979592       0.000
   0.50000000  0.00000000  0.50000000       0.000
 
 position of ions in fractional coordinates (direct lattice) 
   0.00000000  0.00000000  0.00000000
   0.25000000  0.25000000  0.25000000
 
 position of ions in cartesian coordinates  (Angst):
   0.00000000  0.00000000  0.00000000
   1.40825000  1.40825000  1.40825000
 


--------------------------------------------------------------------------------------------------------


 k-point  1 :   0.0000 0.0000 0.0000  plane waves:     941
 k-point  2 :   0.2500 0.0000 0.0000  plane waves:     959
 k-point  3 :   0.5000 0.0000 0.0000  plane waves:     978
 k-point  4 :   0.2500 0.2500 0.0000  plane waves:     982
 k-point  5 :   0.5000 0.2500 0.0000  plane waves:     971
 k-point  6 :  -0.2500 0.2500 0.0000  plane waves:     975
 k-point  7 :   0.5000 0.5000 0.0000  plane waves:     982
 k-point  8 :  -0.2500 0.5000 0.2500  plane waves:     952
 k-point  9 :   0.5000 0.5000 0.5000  plane waves:     978
 k-point 10 :   0.4898 0.4898 0.4898  plane waves:     969
 k-point 11 :   0.4796 0.4796 0.4796  plane waves:     969
 k-point 12 :   0.4694 0.4694 0.4694  plane waves:     969
 k-point 13 :   0.4592 0.4592 0.4592  plane waves:     969
 k-point 14 :   0.4490 0.4490 0.4490  plane waves:     969
 k-point 15 :   0.4388 0.4388 0.4388  plane waves:     969
 k-point 16 :   0.4286 0.4286 0.4286  plane waves:     969
 k-point 17 :   0.4184 0.4184 0.4184  plane waves:     963
 k-point 18 :   0.4082 0.4082 0.4082  plane waves:     963
 k-point 19 :   0.3980 0.3980 0.3980  plane waves:     966
 k-point 20 :   0.3878 0.3878 0.3878  plane waves:     954
 k-point 21 :   0.3776 0.3776 0.3776  plane waves:     960
 k-point 22 :   0.3673 0.3673 0.3673  plane waves:     965
 k-point 23 :   0.3571 0.3571 0.3571  plane waves:     962
 k-point 24 :   0.3469 0.3469 0.3469  plane waves:     968
 k-point 25 :   0.3367 0.3367 0.3367  plane waves:     968
 k-point 26 :   0.3265 0.3265 0.3265  plane waves:     968
 k-point 27 :   0.3163 0.3163 0.3163  plane waves:     968
 k-point 28 :   0.3061 0.3061 0.3061  plane waves:     962
 k-point 29 :   0.2959 0.2959 0.2959  plane waves:     962
 k-point 30 :   0.2857 0.2857 0.2857  plane waves:     956
 k-point 31 :   0.2755 0.2755 0.2755  plane waves:     956
 k-point 32 :   0.2653 0.2653 0.2653  plane waves:     962
 k-point 33 :   0.2551 0.2551 0.2551  plane waves:     959
 k-point 34 :   0.2449 0.2449 0.2449  plane waves:     959
 k-point 35 :   0.2347 0.2347 0.2347  plane waves:     953
 k-point 36 :   0.2245 0.2245 0.2245  plane waves:     953
 k-point 37 :   0.2143 0.2143 0.2143  plane waves:     953
 k-point 38 :   0.2041 0.2041 0.2041  plane waves:     956
 k-point 39 :   0.1939 0.1939 0.1939  plane waves:     956
 k-point 40 :   0.1837 0.1837 0.1837  plane waves:     950
 k-point 41 :   0.1735 0.1735 0.1735  plane waves:     956
 k-point 42 :   0.1633 0.1633 0.1633  plane waves:     956
 k-point 43 :   0.1531 0.1531 0.1531  plane waves:     953
 k-point 44 :   0.1429 0.1429 0.1429  plane waves:     959
 k-point 45 :   0.1327 0.1327 0.1327  plane waves:     953
 k-point 46 :   0.1224 0.1224 0.1224  plane waves:     953
 k-point 47 :   0.1122 0.1122 0.1122  plane waves:     950
 k-point 48 :   0.1020 0.1020 0.1020  plane waves:     950
 k-point 49 :   0.0918 0.0918 0.0918  plane waves:     950
 k-point 50 :   0.0816 0.0816 0.0816  plane waves:     950
 k-point 51 :   0.0714 0.0714 0.0714  plane waves:     950
 k-point 52 :   0.0612 0.0612 0.0612  plane waves:     944
 k-point 53 :   0.0510 0.0510 0.0510  plane waves:     944
 k-point 54 :   0.0408 0.0408 0.0408  plane waves:     944
 k-point 55 :   0.0306 0.0306 0.0306  plane waves:     941
 k-point 56 :   0.0204 0.0204 0.0204  plane waves:     941
 k-point 57 :   0.0102 0.0102 0.0102  plane waves:     941
 k-point 58 :   0.0000 0.0000 0.0000  plane waves:     941
 k-point 59 :   0.0000 0.0000 0.0000  plane waves:     941
 k-point 60 :   0.0102 0.0000 0.0102  plane waves:     941
 k-point 61 :   0.0204 0.0000 0.0204  plane waves:     941
 k-point 62 :   0.0306 0.0000 0.0306  plane waves:     941
 k-point 63 :   0.0408 0.0000 0.0408  plane waves:     945
 k-point 64 :   0.0510 0.0000 0.0510  plane waves:     945
 k-point 65 :   0.0612 0.0000 0.0612  plane waves:     945
 k-point 66 :   0.0714 0.0000 0.0714  plane waves:     953
 k-point 67 :   0.0816 0.0000 0.0816  plane waves:     953
 k-point 68 :   0.0918 0.0000 0.0918  plane waves:     953
 k-point 69 :   0.1020 0.0000 0.1020  plane waves:     953
 k-point 70 :   0.1122 0.0000 0.1122  plane waves:     945
 k-point 71 :   0.1224 0.0000 0.1224  plane waves:     949
 k-point 72 :   0.1327 0.0000 0.1327  plane waves:     950
 k-point 73 :   0.1429 0.0000 0.1429  plane waves:     950
 k-point 74 :   0.1531 0.0000 0.1531  plane waves:     962
 k-point 75 :   0.1633 0.0000 0.1633  plane waves:     966
 k-point 76 :   0.1735 0.0000 0.1735  plane waves:     966
 k-point 77 :   0.1837 0.0000 0.1837  plane waves:     966
 k-point 78 :   0.1939 0.0000 0.1939  plane waves:     966
 k-point 79 :   0.2041 0.0000 0.2041  plane waves:     966
 k-point 80 :   0.2143 0.0000 0.2143  plane waves:     974
 k-point 81 :   0.2245 0.0000 0.2245  plane waves:     978
 k-point 82 :   0.2347 0.0000 0.2347  plane waves:     982
 k-point 83 :   0.2449 0.0000 0.2449  plane waves:     982
 k-point 84 :   0.2551 0.0000 0.2551  plane waves:     982
 k-point 85 :   0.2653 0.0000 0.2653  plane waves:     982
 k-point 86 :   0.2755 0.0000 0.2755  plane waves:     982
 k-point 87 :   0.2857 0.0000 0.2857  plane waves:     974
 k-point 88 :   0.2959 0.0000 0.2959  plane waves:     982
 k-point 89 :   0.3061 0.0000 0.3061  plane waves:     974
 k-point 90 :   0.3163 0.0000 0.3163  plane waves:     974
 k-point 91 :   0.3265 0.0000 0.3265  plane waves:     970
 k-point 92 :   0.3367 0.0000 0.3367  plane waves:     962
 k-point 93 :   0.3469 0.0000 0.3469  plane waves:     966
 k-point 94 :   0.3571 0.0000 0.3571  plane waves:     974
 k-point 95 :   0.3673 0.0000 0.3673  plane waves:     974
 k-point 96 :   0.3776 0.0000 0.3776  plane waves:     974
 k-point 97 :   0.3878 0.0000 0.3878  plane waves:     974
 k-point 98 :   0.3980 0.0000 0.3980  plane waves:     978
 k-point 99 :   0.4082 0.0000 0.4082  plane waves:     978
 k-point ** :   0.4184 0.0000 0.4184  plane waves:     978
 k-point ** :   0.4286 0.0000 0.4286  plane waves:     978
 k-point ** :   0.4388 0.0000 0.4388  plane waves:     978
 k-point ** :   0.4490 0.0000 0.4490  plane waves:     974
 k-point ** :   0.4592 0.0000 0.4592  plane waves:     974
 k-point ** :   0.4694 0.0000 0.4694  plane waves:     982
 k-point ** :   0.4796 0.0000 0.4796  plane waves:     982
 k-point ** :   0.4898 0.0000 0.4898  plane waves:     982
 k-point ** :   0.5000 0.0000 0.5000  plane waves:     982

 maximum and minimum number of plane-waves per node :       982      941

 maximum number of plane-waves:       982
 maximum index in each direction: 
   IXMAX=    7   IYMAX=    6   IZMAX=    6
   IXMIN=   -7   IYMIN=   -7   IZMIN=   -7


 serial   3D FFT for wavefunctions
 parallel 3D FFT for charge:
    minimum data exchange during FFTs selected (reduces bandwidth)

 
 Radii for the augmentation spheres in the non-local exchange
 for species   1 augmentation radius   1.454 (default was   1.163)
       energy cutoff for augmentation   1800.0
 Maximum index for augmentation-charges in exchange         3997
  SETUP_FOCK is finished

 total amount of memory used by VASP MPI-rank0    49713. kBytes
=======================================================================

   base      :      30000. kBytes
   nonl-proj :      11354. kBytes
   fftplans  :        272. kBytes
   grid      :        626. kBytes
   one-center:         16. kBytes
   HF        :         33. kBytes
   nonlr-proj:       1898. kBytes
   wavefun   :       5514. kBytes
 
     INWAV:  cpu time    3.5101: real time    3.5115
 initial charge density was supplied:
 number of electron       7.9999998 magnetization 
 keeping initial charge density in first step


--------------------------------------------------------------------------------------------------------


 Maximum index for augmentation-charges          721 (set IRDMAX)


--------------------------------------------------------------------------------------------------------


 First call to EWALD:  gamma=   0.499
 Maximum number of real-space cells 3x 3x 3
 Maximum number of reciprocal cells 3x 3x 3

    FEWALD:  cpu time    0.0014: real time    0.0016


--------------------------------------- Iteration      1(   1)  ---------------------------------------


    POTLOK:  cpu time    0.0097: real time    0.0099
    SETDIJ:  cpu time    0.2259: real time    0.2261
    TRIAL :  cpu time  439.2745: real time  439.4871
    CORREC:  cpu time    0.0011: real time    0.0012
    --------------------------------------------
      LOOP:  cpu time  439.5215: real time  439.7370

 eigenvalue-minimisations  :     0
 total energy-change (2. order) :-0.1038707E+02  (-0.4288666E-01)
 number of electron       7.9999998 magnetization 
 augmentation part        7.9999998 magnetization 

 Free energy of the ion-electron system (eV)
  ---------------------------------------------------
  alpha Z        PSCENC =        17.10940282
  Ewald energy   TEWEN  =      -220.32663596
  -Hartree energ DENC   =       -15.78736395
  -exchange      EXHF   =        10.74167852
  -V(xc)+E(xc)   XCENC  =       -12.14783997
  PAW double counting   =       477.12181162     -453.66409710
  entropy T*S    EENTRO =         0.00022701
  eigenvalues    EBANDS =       -20.79769663
  atomic energy  EATOM  =       207.36337913
  ---------------------------------------------------
  free energy    TOTEN  =       -10.38706981 eV

  energy without entropy =      -10.38729683  energy(sigma->0) =      -10.38714548
  exchange ACFDT corr.  =         0.00010977  see jH, gK, PRB 81, 115126


--------------------------------------------------------------------------------------------------------




--------------------------------------- Iteration      1(   2)  ---------------------------------------


    TRIAL :  cpu time  442.3684: real time  442.5725
    CORREC:  cpu time    0.0008: real time    0.0008
    --------------------------------------------
      LOOP:  cpu time  442.3702: real time  442.5857

 eigenvalue-minimisations  :     0
 total energy-change (2. order) :-0.3624104E-01  (-0.3166642E-01)
 number of electron       7.9999998 magnetization 
 augmentation part        7.9999998 magnetization 

 Free energy of the ion-electron system (eV)
  ---------------------------------------------------
  alpha Z        PSCENC =        17.10940282
  Ewald energy   TEWEN  =      -220.32663596
  -Hartree energ DENC   =       -15.78736395
  -exchange      EXHF   =        10.74824523
  -V(xc)+E(xc)   XCENC  =       -12.14783997
  PAW double counting   =       477.12181162     -453.66409710
  entropy T*S    EENTRO =         0.00013589
  eigenvalues    EBANDS =       -20.84043969
  atomic energy  EATOM  =       207.36337913
  ---------------------------------------------------
  free energy    TOTEN  =       -10.42331086 eV

  energy without entropy =      -10.42344674  energy(sigma->0) =      -10.42335615
  exchange ACFDT corr.  =        -0.00001770  see jH, gK, PRB 81, 115126


--------------------------------------------------------------------------------------------------------




--------------------------------------- Iteration      1(   3)  ---------------------------------------


    TRIAL :  cpu time  436.1247: real time  436.3515
    CORREC:  cpu time    0.0008: real time    0.0008
    --------------------------------------------
      LOOP:  cpu time  436.1266: real time  436.3636

 eigenvalue-minimisations  :     0
 total energy-change (2. order) :-0.2394877E-01  (-0.1358014E-01)
 number of electron       7.9999998 magnetization 
 augmentation part        7.9999998 magnetization 

 Free energy of the ion-electron system (eV)
  ---------------------------------------------------
  alpha Z        PSCENC =        17.10940282
  Ewald energy   TEWEN  =      -220.32663596
  -Hartree energ DENC   =       -15.78736395
  -exchange      EXHF   =        10.75682171
  -V(xc)+E(xc)   XCENC  =       -12.14783997
  PAW double counting   =       477.12181162     -453.66409710
  entropy T*S    EENTRO =         0.00013589
  eigenvalues    EBANDS =       -20.87287381
  atomic energy  EATOM  =       207.36337913
  ---------------------------------------------------
  free energy    TOTEN  =       -10.44725962 eV

  energy without entropy =      -10.44739551  energy(sigma->0) =      -10.44730492
  exchange ACFDT corr.  =        -0.00000000  see jH, gK, PRB 81, 115126


--------------------------------------------------------------------------------------------------------




--------------------------------------- Iteration      1(   4)  ---------------------------------------


    TRIAL :  cpu time  441.7000: real time  441.9103
    CORREC:  cpu time    0.0008: real time    0.0008
    --------------------------------------------
      LOOP:  cpu time  441.7019: real time  441.9218

 eigenvalue-minimisations  :     0
 total energy-change (2. order) :-0.1035400E-01  (-0.5976095E-02)
 number of electron       7.9999998 magnetization 
 augmentation part        7.9999998 magnetization 

 Free energy of the ion-electron system (eV)
  ---------------------------------------------------
  alpha Z        PSCENC =        17.10940282
  Ewald energy   TEWEN  =      -220.32663596
  -Hartree energ DENC   =       -15.78736395
  -exchange      EXHF   =        10.76408049
  -V(xc)+E(xc)   XCENC  =       -12.14783997
  PAW double counting   =       477.12181162     -453.66409710
  entropy T*S    EENTRO =         0.00013589
  eigenvalues    EBANDS =       -20.89048658
  atomic energy  EATOM  =       207.36337913
  ---------------------------------------------------
  free energy    TOTEN  =       -10.45761363 eV

  energy without entropy =      -10.45774951  energy(sigma->0) =      -10.45765892
  exchange ACFDT corr.  =        -0.00000000  see jH, gK, PRB 81, 115126


--------------------------------------------------------------------------------------------------------




--------------------------------------- Iteration      1(   5)  ---------------------------------------


    TRIAL :  cpu time  448.2526: real time  448.4525
    CORREC:  cpu time    0.0008: real time    0.0008
    --------------------------------------------
      LOOP:  cpu time  448.2545: real time  448.4639

 eigenvalue-minimisations  :     0
 total energy-change (2. order) :-0.4823141E-02  (-0.3272948E-02)
 number of electron       7.9999998 magnetization 
 augmentation part        7.9999998 magnetization 

 Free energy of the ion-electron system (eV)
  ---------------------------------------------------
  alpha Z        PSCENC =        17.10940282
  Ewald energy   TEWEN  =      -220.32663596
  -Hartree energ DENC   =       -15.78736395
  -exchange      EXHF   =        10.76946525
  -V(xc)+E(xc)   XCENC  =       -12.14783997
  PAW double counting   =       477.12181162     -453.66409710
  entropy T*S    EENTRO =         0.00013589
  eigenvalues    EBANDS =       -20.90069448
  atomic energy  EATOM  =       207.36337913
  ---------------------------------------------------
  free energy    TOTEN  =       -10.46243677 eV

  energy without entropy =      -10.46257266  energy(sigma->0) =      -10.46248206
  exchange ACFDT corr.  =         0.00000000  see jH, gK, PRB 81, 115126


--------------------------------------------------------------------------------------------------------




--------------------------------------- Iteration      1(   6)  ---------------------------------------


    TRIAL :  cpu time  458.8817: real time  459.1519
    CORREC:  cpu time    0.0008: real time    0.0008
    --------------------------------------------
      LOOP:  cpu time  458.8836: real time  459.1633

 eigenvalue-minimisations  :     0
 total energy-change (2. order) :-0.2759392E-02  (-0.1882725E-02)
 number of electron       7.9999998 magnetization 
 augmentation part        7.9999998 magnetization 

 Free energy of the ion-electron system (eV)
  ---------------------------------------------------
  alpha Z        PSCENC =        17.10940282
  Ewald energy   TEWEN  =      -220.32663596
  -Hartree energ DENC   =       -15.78736395
  -exchange      EXHF   =        10.77325404
  -V(xc)+E(xc)   XCENC  =       -12.14783997
  PAW double counting   =       477.12181162     -453.66409710
  entropy T*S    EENTRO =         0.00013589
  eigenvalues    EBANDS =       -20.90724268
  atomic energy  EATOM  =       207.36337913
  ---------------------------------------------------
  free energy    TOTEN  =       -10.46519616 eV

  energy without entropy =      -10.46533205  energy(sigma->0) =      -10.46524146
  exchange ACFDT corr.  =         0.00000000  see jH, gK, PRB 81, 115126


--------------------------------------------------------------------------------------------------------




--------------------------------------- Iteration      1(   7)  ---------------------------------------


    TRIAL :  cpu time  452.6770: real time  452.8767
    CORREC:  cpu time    0.0004: real time    0.0004
    --------------------------------------------
      LOOP:  cpu time  452.6787: real time  452.8886

 eigenvalue-minimisations  :     0
 total energy-change (2. order) :-0.1570605E-02  (-0.9531377E-03)
 number of electron       7.9999998 magnetization 
 augmentation part        7.9999998 magnetization 

 Free energy of the ion-electron system (eV)
  ---------------------------------------------------
  alpha Z        PSCENC =        17.10940282
  Ewald energy   TEWEN  =      -220.32663596
  -Hartree energ DENC   =       -15.78736395
  -exchange      EXHF   =        10.77590096
  -V(xc)+E(xc)   XCENC  =       -12.14783997
  PAW double counting   =       477.12181162     -453.66409710
  entropy T*S    EENTRO =         0.00000000
  eigenvalues    EBANDS =       -20.91146020
  atomic energy  EATOM  =       207.36337913
  ---------------------------------------------------
  free energy    TOTEN  =       -10.46676676 eV

  energy without entropy =      -10.46676676  energy(sigma->0) =      -10.46676676
  exchange ACFDT corr.  =         0.00000000  see jH, gK, PRB 81, 115126


--------------------------------------------------------------------------------------------------------




--------------------------------------- Iteration      1(   8)  ---------------------------------------


    TRIAL :  cpu time  436.3768: real time  436.5934
    CORREC:  cpu time    0.0004: real time    0.0004
    --------------------------------------------
      LOOP:  cpu time  436.3779: real time  437.2527

 eigenvalue-minimisations  :     0
 total energy-change (2. order) :-0.9150020E-03  (-0.4354906E-03)
 number of electron       7.9999998 magnetization 
 augmentation part        7.9999998 magnetization 

 Free energy of the ion-electron system (eV)
  ---------------------------------------------------
  alpha Z        PSCENC =        17.10940282
  Ewald energy   TEWEN  =      -220.32663596
  -Hartree energ DENC   =       -15.78736395
  -exchange      EXHF   =        10.77780727
  -V(xc)+E(xc)   XCENC  =       -12.14783997
  PAW double counting   =       477.12181162     -453.66409710
  entropy T*S    EENTRO =         0.00000000
  eigenvalues    EBANDS =       -20.91414562
  atomic energy  EATOM  =       207.36337913
  ---------------------------------------------------
  free energy    TOTEN  =       -10.46768177 eV

  energy without entropy =      -10.46768177  energy(sigma->0) =      -10.46768177
  exchange ACFDT corr.  =         0.00000000  see jH, gK, PRB 81, 115126


--------------------------------------------------------------------------------------------------------




--------------------------------------- Iteration      1(   9)  ---------------------------------------


    TRIAL :  cpu time  438.1286: real time  438.3371
    CORREC:  cpu time    0.0007: real time    0.0007
    --------------------------------------------
      LOOP:  cpu time  438.1303: real time  438.3484

 eigenvalue-minimisations  :     0
 total energy-change (2. order) :-0.3571367E-03  (-0.2019378E-03)
 number of electron       7.9999998 magnetization 
 augmentation part        7.9999998 magnetization 

 Free energy of the ion-electron system (eV)
  ---------------------------------------------------
  alpha Z        PSCENC =        17.10940282
  Ewald energy   TEWEN  =      -220.32663596
  -Hartree energ DENC   =       -15.78736395
  -exchange      EXHF   =        10.77923668
  -V(xc)+E(xc)   XCENC  =       -12.14783997
  PAW double counting   =       477.12181162     -453.66409710
  entropy T*S    EENTRO =         0.00013589
  eigenvalues    EBANDS =       -20.91593216
  atomic energy  EATOM  =       207.36337913
  ---------------------------------------------------
  free energy    TOTEN  =       -10.46803890 eV

  energy without entropy =      -10.46817479  energy(sigma->0) =      -10.46808420
  exchange ACFDT corr.  =         0.00000000  see jH, gK, PRB 81, 115126


--------------------------------------------------------------------------------------------------------




--------------------------------------- Iteration      1(  10)  ---------------------------------------


    TRIAL :  cpu time  454.1185: real time  454.3456
    CORREC:  cpu time    0.0008: real time    0.0008
    EDDIAG:  cpu time  460.9249: real time  461.1258
    --------------------------------------------
      LOOP:  cpu time  915.0451: real time  915.4832

 eigenvalue-minimisations  :     0
 total energy-change (2. order) :-0.3217026E-04  (-0.9726877E-04)
 number of electron       7.9999998 magnetization 
 augmentation part        7.9999998 magnetization 

 Free energy of the ion-electron system (eV)
  ---------------------------------------------------
  alpha Z        PSCENC =        17.10940282
  Ewald energy   TEWEN  =      -220.32663596
  -Hartree energ DENC   =       -15.78736395
  -exchange      EXHF   =        10.78112621
  -V(xc)+E(xc)   XCENC  =       -12.14783997
  PAW double counting   =       477.12181162     -453.66409710
  entropy T*S    EENTRO =         0.00013589
  eigenvalues    EBANDS =       -20.91718293
  atomic energy  EATOM  =       207.36337913
  ---------------------------------------------------
  free energy    TOTEN  =       -10.46807107 eV

  energy without entropy =      -10.46820696  energy(sigma->0) =      -10.46811637
  exchange ACFDT corr.  =        -0.00000000  see jH, gK, PRB 81, 115126


--------------------------------------------------------------------------------------------------------


  average scaling for gradient   1.1271


 average (electrostatic) potential at core
  the test charge radii are     1.1631
  (the norm of the test charge is              1.0000)
       1 -29.6271       2 -29.6271
 
 
 
 E-fermi :   3.5881     XC(G=0):  -7.6317     alpha+bet : -9.2781


 k-point     1 :       0.0000    0.0000    0.0000
  band No.  band energies     occupation 
      1     -10.6019      2.00000
      2       3.5326      2.00000
      3       3.5326      2.00000
      4       3.5326      1.99999
      5       4.6643     -0.00000
      6       6.7800      0.00000
      7       6.7800      0.00000
      8       6.7800      0.00000
      9      10.8682      0.00000
     10      13.6813      0.00000
     11      13.6813      0.00000
     12      15.2459      0.00000
     13      15.2459      0.00000
     14      15.2459      0.00000
     15      18.2767      0.00000
     16      29.1210      0.00000
     17      29.1210      0.00000
     18      29.1210      0.00000
     19      30.3352      0.00000
     20      30.3352      0.00000
     21      30.3352      0.00000
     22      30.4006      0.00000
     23      30.4006      0.00000
     24      31.3798      0.00000
     25      31.3798      0.00000
     26      31.3798      0.00000
     27      39.5712      0.00000
     28      40.0248      0.00000
     29      40.0248      0.00000
     30      40.0248      0.00000
     31      42.8160      0.00000
     32      42.8160      0.00000
     33      43.4701      0.00000
     34      43.4701      0.00000
     35      44.9236      0.00000
     36      44.9236      0.00000
     37      44.9236      0.00000
     38      45.1213      0.00000
     39      45.4432      0.00000
     40      45.4432      0.00000
     41      45.4432      0.00000
     42      46.1935      0.00000
     43      46.1935      0.00000
     44      46.1935      0.00000
     45      46.6010      0.00000
     46      46.6010      0.00000
     47      46.6011      0.00000
     48      47.6034      0.00000
     49      47.6034      0.00000
     50      47.6034      0.00000
     51      50.9752      0.00000
     52      52.9327      0.00000
     53      52.9327      0.00000
     54      53.0007      0.00000
     55      53.0490      0.00000
     56      53.0493      0.00000

 k-point     2 :       0.2500    0.0000    0.0000
  band No.  band energies     occupation 
      1      -9.7695      2.00000
      2      -1.4945      2.00000
      3       2.5804      2.00000
      4       2.5804      2.00000
      5       5.0065      0.00000
      6       7.9282      0.00000
      7       7.9282      0.00000
      8      10.2328      0.00000
      9      12.4541      0.00000
     10      12.5831      0.00000
     11      12.5831      0.00000
     12      15.5200      0.00000
     13      19.4741      0.00000
     14      19.4741      0.00000
     15      22.4147      0.00000
     16      22.6321      0.00000
     17      22.6321      0.00000
     18      23.4204      0.00000
     19      30.2350      0.00000
     20      30.2350      0.00000
     21      31.2009      0.00000
     22      31.2009      0.00000
     23      32.0311      0.00000
     24      32.8548      0.00000
     25      33.7955      0.00000
     26      34.9531      0.00000
     27      34.9531      0.00000
     28      37.8459      0.00000
     29      37.8459      0.00000
     30      38.2370      0.00000
     31      38.2370      0.00000
     32      40.1028      0.00000
     33      40.6643      0.00000
     34      40.6643      0.00000
     35      40.9921      0.00000
     36      41.3255      0.00000
     37      43.7192      0.00000
     38      43.7192      0.00000
     39      44.7178      0.00000
     40      45.7084      0.00000
     41      45.9473      0.00000
     42      45.9473      0.00000
     43      46.3694      0.00000
     44      49.8735      0.00000
     45      49.8735      0.00000
     46      51.0401      0.00000
     47      51.0402      0.00000
     48      51.9428      0.00000
     49      52.2271      0.00000
     50      52.2271      0.00000
     51      53.6443      0.00000
     52      54.7831      0.00000
     53      57.8636      0.00000
     54      57.8712      0.00000
     55      58.5442      0.00000
     56      58.5892      0.00000

 k-point     3 :       0.5000    0.0000    0.0000
  band No.  band energies     occupation 
      1      -8.2432      2.00000
      2      -4.8095      2.00000
      3       1.9904      2.00000
      4       1.9904      2.00000
      5       4.4740     -0.00000
      6       7.9987      0.00000
      7       7.9987      0.00000
      8      11.4972      0.00000
      9      15.2352      0.00000
     10      15.8388      0.00000
     11      15.8388      0.00000
     12      16.2297      0.00000
     13      16.6679      0.00000
     14      16.6680      0.00000
     15      23.5916      0.00000
     16      24.7488      0.00000
     17      26.2681      0.00000
     18      26.2681      0.00000
     19      26.3334      0.00000
     20      26.3334      0.00000
     21      29.5235      0.00000
     22      30.7663      0.00000
     23      31.2327      0.00000
     24      31.2327      0.00000
     25      32.2906      0.00000
     26      32.2906      0.00000
     27      33.0090      0.00000
     28      36.1300      0.00000
     29      36.1300      0.00000
     30      36.2761      0.00000
     31      36.2761      0.00000
     32      37.2365      0.00000
     33      38.2769      0.00000
     34      38.4577      0.00000
     35      43.4510      0.00000
     36      43.4510      0.00000
     37      43.9509      0.00000
     38      45.0130      0.00000
     39      45.0130      0.00000
     40      45.9718      0.00000
     41      49.4156      0.00000
     42      49.4156      0.00000
     43      50.6267      0.00000
     44      50.6267      0.00000
     45      51.4846      0.00000
     46      53.6169      0.00000
     47      53.9258      0.00000
     48      53.9258      0.00000
     49      55.4188      0.00000
     50      55.4191      0.00000
     51      56.0237      0.00000
     52      57.1746      0.00000
     53      57.1759      0.00000
     54      59.2754      0.00000
     55      59.2924      0.00000
     56      59.8955      0.00000

 k-point     4 :       0.2500    0.2500    0.0000
  band No.  band energies     occupation 
      1      -9.4682      2.00000
      2      -1.4117      2.00000
      3       1.3046      2.00000
      4       1.3046      2.00000
      5       5.1214      0.00000
      6       7.0826      0.00000
      7      10.3300      0.00000
      8      10.3300      0.00000
      9      11.6219      0.00000
     10      14.7781      0.00000
     11      14.8066      0.00000
     12      17.3910      0.00000
     13      17.3910      0.00000
     14      18.0139      0.00000
     15      22.2451      0.00000
     16      22.2451      0.00000
     17      23.4552      0.00000
     18      24.5319      0.00000
     19      25.1825      0.00000
     20      30.1344      0.00000
     21      31.6618      0.00000
     22      31.7728      0.00000
     23      31.7728      0.00000
     24      32.8478      0.00000
     25      32.8478      0.00000
     26      33.8146      0.00000
     27      34.4443      0.00000
     28      37.7712      0.00000
     29      38.9195      0.00000
     30      39.0625      0.00000
     31      39.0625      0.00000
     32      39.9892      0.00000
     33      39.9892      0.00000
     34      40.8241      0.00000
     35      42.3997      0.00000
     36      42.3997      0.00000
     37      42.8994      0.00000
     38      43.1087      0.00000
     39      43.7257      0.00000
     40      45.7065      0.00000
     41      46.0139      0.00000
     42      46.0139      0.00000
     43      47.8215      0.00000
     44      50.1480      0.00000
     45      50.1480      0.00000
     46      50.4544      0.00000
     47      50.6295      0.00000
     48      51.9333      0.00000
     49      51.9333      0.00000
     50      52.1050      0.00000
     51      53.2657      0.00000
     52      53.6087      0.00000
     53      56.9299      0.00000
     54      58.1769      0.00000
     55      58.1801      0.00000
     56      61.0866      0.00000

 k-point     5 :       0.5000    0.2500    0.0000
  band No.  band energies     occupation 
      1      -7.7822      2.00000
      2      -4.5109      2.00000
      3      -0.5229      2.00000
      4       0.8878      2.00000
      5       5.5704      0.00000
      6       8.6707      0.00000
      7       9.8245      0.00000
      8      10.6769      0.00000
      9      14.6558      0.00000
     10      15.8558      0.00000
     11      16.5514      0.00000
     12      17.0201      0.00000
     13      17.7562      0.00000
     14      21.3503      0.00000
     15      22.3863      0.00000
     16      23.6488      0.00000
     17      24.0751      0.00000
     18      24.1314      0.00000
     19      24.5493      0.00000
     20      26.5327      0.00000
     21      28.5578      0.00000
     22      29.0703      0.00000
     23      29.8089      0.00000
     24      31.2952      0.00000
     25      32.5293      0.00000
     26      33.0527      0.00000
     27      33.0795      0.00000
     28      34.1836      0.00000
     29      35.5595      0.00000
     30      37.4943      0.00000
     31      38.0800      0.00000
     32      39.5504      0.00000
     33      40.3055      0.00000
     34      40.4936      0.00000
     35      40.9297      0.00000
     36      43.7535      0.00000
     37      45.5323      0.00000
     38      46.0966      0.00000
     39      47.0024      0.00000
     40      47.1014      0.00000
     41      47.1375      0.00000
     42      48.3660      0.00000
     43      48.6427      0.00000
     44      50.1376      0.00000
     45      50.8786      0.00000
     46      51.6110      0.00000
     47      52.5770      0.00000
     48      53.1658      0.00000
     49      55.0503      0.00000
     50      55.9827      0.00000
     51      56.8001      0.00000
     52      57.0971      0.00000
     53      57.8268      0.00000
     54      59.4167      0.00000
     55      59.7911      0.00000
     56      61.5152      0.00000

 k-point     6 :      -0.2500    0.2500    0.0000
  band No.  band energies     occupation 
      1      -8.4800      2.00000
      2      -3.5284      2.00000
      3      -0.6893      2.00000
      4       1.8907      2.00000
      5       6.2650      0.00000
      6       9.2186      0.00000
      7       9.5105      0.00000
      8       9.7992      0.00000
      9      11.8724      0.00000
     10      14.1003      0.00000
     11      16.6105      0.00000
     12      17.1307      0.00000
[...]
     45      56.9959      0.00000
     46      62.0550      0.00000
     47      63.0747      0.00000
     48      63.5569      0.00000
     49      64.4645      0.00000
     50      65.8689      0.00000
     51      70.2490      0.00000
     52      72.4772      0.00000
     53      73.1906      0.00000
     54      73.3239      0.00000
     55      87.3331      0.00000
     56      88.1056      0.00000

 k-point   103 :       0.4490    0.0000    0.4490
  band No.  band energies     occupation 
      1      -7.0258      2.00000
      2      -5.3244      2.00000
      3       0.1888      2.00000
      4       0.1893      2.00000
      5       4.6624     -0.00000
      6       5.1032      0.00000
      7      14.0538      0.00000
      8      14.0762      0.00000
      9      15.6131      0.00000
     10      17.2003      0.00000
     11      17.3698      0.00000
     12      17.5309      0.00000
     13      17.6983      0.00000
     14      18.8347      0.00000
     15      22.1500      0.00000
     16      22.1502      0.00000
     17      22.1542      0.00000
     18      23.0588      0.00000
     19      25.3026      0.00000
     20      25.7017      0.00000
     21      27.3774      0.00000
     22      28.1405      0.00000
     23      30.1569      0.00000
     24      32.3015      0.00000
     25      33.6363      0.00000
     26      33.7637      0.00000
     27      34.9121      0.00000
     28      37.4579      0.00000
     29      38.9511      0.00000
     30      39.0112      0.00000
     31      40.1148      0.00000
     32      42.8707      0.00000
     33      43.5844      0.00000
     34      46.4251      0.00000
     35      46.6657      0.00000
     36      46.8687      0.00000
     37      47.1095      0.00000
     38      47.3242      0.00000
     39      48.6812      0.00000
     40      50.5758      0.00000
     41      51.7655      0.00000
     42      53.9671      0.00000
     43      54.0691      0.00000
     44      54.4717      0.00000
     45      57.4497      0.00000
     46      62.2870      0.00000
     47      63.2086      0.00000
     48      63.9948      0.00000
     49      64.6566      0.00000
     50      66.1507      0.00000
     51      70.6565      0.00000
     52      73.0352      0.00000
     53      73.2452      0.00000
     54      73.8791      0.00000
     55      87.0848      0.00000
     56      87.9535      0.00000

 k-point   104 :       0.4592    0.0000    0.4592
  band No.  band energies     occupation 
      1      -6.8678      2.00000
      2      -5.5060      2.00000
      3       0.1707      2.00000
      4       0.1711      2.00000
      5       4.6849      0.00000
      6       5.0376      0.00000
      7      14.1990      0.00000
      8      14.2152      0.00000
      9      15.8160      0.00000
     10      17.2595      0.00000
     11      17.3565      0.00000
     12      17.3810      0.00000
     13      17.5393      0.00000
     14      18.6238      0.00000
     15      22.4408      0.00000
     16      22.4420      0.00000
     17      22.4579      0.00000
     18      23.2920      0.00000
     19      24.9668      0.00000
     20      25.3556      0.00000
     21      26.7325      0.00000
     22      26.8540      0.00000
     23      31.1717      0.00000
     24      32.2553      0.00000
     25      33.6824      0.00000
     26      33.9086      0.00000
     27      35.4813      0.00000
     28      37.5140      0.00000
     29      38.6251      0.00000
     30      39.2272      0.00000
     31      40.1126      0.00000
     32      42.7986      0.00000
     33      43.5895      0.00000
     34      46.6311      0.00000
     35      46.6713      0.00000
     36      46.9712      0.00000
     37      47.2149      0.00000
     38      47.2694      0.00000
     39      47.9761      0.00000
     40      50.5418      0.00000
     41      52.2195      0.00000
     42      54.0985      0.00000
     43      54.3422      0.00000
     44      54.9481      0.00000
     45      57.8675      0.00000
     46      62.6698      0.00000
     47      63.3410      0.00000
     48      64.6377      0.00000
     49      64.7448      0.00000
     50      66.3510      0.00000
     51      71.0378      0.00000
     52      72.8974      0.00000
     53      73.7022      0.00000
     54      74.3936      0.00000
     55      86.8764      0.00000
     56      87.8197      0.00000

 k-point   105 :       0.4694    0.0000    0.4694
  band No.  band energies     occupation 
      1      -6.7069      2.00000
      2      -5.6851      2.00000
      3       0.1578      2.00000
      4       0.1578      2.00000
      5       4.7112      0.00000
      6       4.9756      0.00000
      7      14.3272      0.00000
      8      14.3350      0.00000
      9      16.0148      0.00000
     10      17.1415      0.00000
     11      17.3107      0.00000
     12      17.3925      0.00000
     13      17.4593      0.00000
     14      18.4174      0.00000
     15      22.7380      0.00000
     16      22.7386      0.00000
     17      22.7657      0.00000
     18      23.5465      0.00000
     19      24.6352      0.00000
     20      25.0166      0.00000
     21      26.1493      0.00000
     22      26.2931      0.00000
     23      31.4428      0.00000
     24      32.2605      0.00000
     25      33.7589      0.00000
     26      34.0446      0.00000
     27      35.9739      0.00000
     28      37.5445      0.00000
     29      38.3173      0.00000
     30      39.4378      0.00000
     31      40.1104      0.00000
     32      42.7769      0.00000
     33      43.5933      0.00000
     34      46.8979      0.00000
     35      46.9259      0.00000
     36      47.2372      0.00000
     37      47.2605      0.00000
     38      47.3009      0.00000
     39      47.3878      0.00000
     40      50.4709      0.00000
     41      52.5553      0.00000
     42      54.4171      0.00000
     43      54.8886      0.00000
     44      55.5375      0.00000
     45      58.0524      0.00000
     46      63.4388      0.00000
     47      63.5844      0.00000
     48      64.7503      0.00000
     49      66.0043      0.00000
     50      66.1118      0.00000
     51      71.2505      0.00000
     52      72.7148      0.00000
     53      73.5045      0.00000
     54      74.5721      0.00000
     55      86.6112      0.00000
     56      87.6359      0.00000

 k-point   106 :       0.4796    0.0000    0.4796
  band No.  band energies     occupation 
      1      -6.5432      2.00000
      2      -5.8618      2.00000
      3       0.1477      2.00000
      4       0.1479      2.00000
      5       4.7432      0.00000
      6       4.9195      0.00000
      7      14.4281      0.00000
      8      14.4308      0.00000
      9      16.2102      0.00000
     10      17.0203      0.00000
     11      17.2520      0.00000
     12      17.2600      0.00000
     13      17.5831      0.00000
     14      18.2171      0.00000
     15      23.0396      0.00000
     16      23.0416      0.00000
     17      23.0803      0.00000
     18      23.8162      0.00000
     19      24.3087      0.00000
     20      24.6823      0.00000
     21      25.6425      0.00000
     22      25.8362      0.00000
     23      31.6140      0.00000
     24      32.2143      0.00000
     25      33.8420      0.00000
     26      34.1669      0.00000
     27      36.4451      0.00000
     28      37.5746      0.00000
     29      38.0431      0.00000
     30      39.6297      0.00000
     31      40.1061      0.00000
     32      42.7744      0.00000
     33      43.6005      0.00000
     34      46.3543      0.00000
     35      47.1043      0.00000
     36      47.2003      0.00000
     37      47.4362      0.00000
     38      47.5510      0.00000
     39      47.7004      0.00000
     40      50.0958      0.00000
     41      52.8762      0.00000
     42      54.5345      0.00000
     43      55.9274      0.00000
     44      56.4725      0.00000
     45      57.6203      0.00000
     46      63.6277      0.00000
     47      64.4529      0.00000
     48      64.6847      0.00000
     49      65.5604      0.00000
     50      70.4139      0.00000
     51      71.5751      0.00000
     52      71.5954      0.00000
     53      72.5542      0.00000
     54      73.7213      0.00000
     55      86.2520      0.00000
     56      87.4622      0.00000

 k-point   107 :       0.4898    0.0000    0.4898
  band No.  band energies     occupation 
      1      -6.3767      2.00000
      2      -6.0361      2.00000
      3       0.1415      2.00000
      4       0.1419      2.00000
      5       4.7800      0.00000
      6       4.8681      0.00000
      7      14.4885      0.00000
      8      14.5049      0.00000
      9      16.4001      0.00000
     10      16.9013      0.00000
     11      17.1181      0.00000
     12      17.1445      0.00000
     13      17.8180      0.00000
     14      18.0243      0.00000
     15      23.3448      0.00000
     16      23.3512      0.00000
     17      23.3993      0.00000
     18      23.9943      0.00000
     19      24.0951      0.00000
     20      24.3655      0.00000
     21      25.1678      0.00000
     22      25.3744      0.00000
     23      31.7590      0.00000
     24      32.1494      0.00000
     25      33.9183      0.00000
     26      34.2908      0.00000
     27      36.8969      0.00000
     28      37.5853      0.00000
     29      37.8733      0.00000
     30      39.7628      0.00000
     31      40.1096      0.00000
     32      42.7748      0.00000
     33      43.6056      0.00000
     34      46.1268      0.00000
     35      47.1953      0.00000
     36      47.3873      0.00000
     37      47.6273      0.00000
     38      47.8280      0.00000
     39      48.2271      0.00000
     40      49.6630      0.00000
     41      53.1606      0.00000
     42      54.6117      0.00000
     43      56.3528      0.00000
     44      57.2429      0.00000
     45      57.6973      0.00000
     46      63.6133      0.00000
     47      63.6464      0.00000
     48      65.4743      0.00000
     49      66.1294      0.00000
     50      67.5737      0.00000
     51      71.9257      0.00000
     52      72.2495      0.00000
     53      74.6992      0.00000
     54      74.9368      0.00000
     55      86.2991      0.00000
     56      87.5988      0.00000

 k-point   108 :       0.5000    0.0000    0.5000
  band No.  band energies     occupation 
      1      -6.2077      2.00000
      2      -6.2076      2.00000
      3       0.1394      2.00000
      4       0.1400      2.00000
      5       4.8216      0.00000
      6       4.8217      0.00000
      7      14.5107      0.00000
      8      14.5433      0.00000
      9      16.5849      0.00000
     10      16.7824      0.00000
     11      17.0537      0.00000
     12      17.0754      0.00000
     13      17.8380      0.00000
     14      18.0117      0.00000
     15      23.6541      0.00000
     16      23.6660      0.00000
     17      23.7217      0.00000
     18      23.7593      0.00000
     19      24.0483      0.00000
     20      24.3114      0.00000
     21      24.7058      0.00000
     22      24.9707      0.00000
     23      31.8965      0.00000
     24      32.0936      0.00000
     25      33.9879      0.00000
     26      34.3965      0.00000
     27      37.3148      0.00000
     28      37.6371      0.00000
     29      37.7119      0.00000
     30      39.8754      0.00000
     31      40.1183      0.00000
     32      42.7590      0.00000
     33      43.6123      0.00000
     34      46.3120      0.00000
     35      47.0886      0.00000
     36      47.5322      0.00000
     37      47.7076      0.00000
     38      48.0923      0.00000
     39      48.2553      0.00000
     40      48.6929      0.00000
     41      53.3718      0.00000
     42      54.6154      0.00000
     43      56.7922      0.00000
     44      57.5888      0.00000
     45      58.0979      0.00000
     46      63.0321      0.00000
     47      63.5912      0.00000
     48      65.5711      0.00000
     49      66.1598      0.00000
     50      66.9454      0.00000
     51      71.5706      0.00000
     52      72.1581      0.00000
     53      76.3027      0.00000
     54      76.3174      0.00000
     55      86.0189      0.00000
     56      87.3641      0.00000


--------------------------------------------------------------------------------------------------------


 soft charge-density along one line, spin component           1
         0         1         2         3         4         5         6         7         8         9
 total charge-density along one line
 
 pseudopotential strength for first ion, spin component:           1
 13.224   0.000  16.489  -0.000  -0.000  -0.000  -0.000   0.000  -0.000   0.000  -0.000  -0.000  -0.000   0.000  -0.000   0.000
 16.489   0.000  20.569  -0.000  -0.000  -0.000  -0.000   0.000  -0.000   0.000  -0.000  -0.000  -0.000   0.000  -0.000   0.000
 -0.000   0.000  -0.000   0.000   2.933   0.000   0.000  -0.000   0.000  -0.000   5.011  -0.000   0.000  -0.000   0.000  -0.000
 -0.000  -0.000  -0.000  -0.000   0.000   0.000   2.933   0.000   0.000  -0.000   0.000   0.000   5.011  -0.000   0.000  -0.000
 -0.000  -0.000  -0.000  -0.000   0.000   0.000   0.000   0.000   2.933   0.000   0.000   0.000   0.000   0.000   5.011  -0.000
 -0.000   0.000  -0.000   0.000   5.011   0.000   0.000  -0.000   0.000  -0.000   8.606  -0.000   0.000  -0.000   0.000  -0.000
 -0.000  -0.000  -0.000  -0.000   0.000   0.000   5.011   0.000   0.000  -0.000   0.000   0.000   8.606  -0.000   0.000  -0.000
 -0.000  -0.000  -0.000  -0.000   0.000   0.000   0.000   0.000   5.011   0.000   0.000   0.000   0.000   0.000   8.606  -0.000
  0.000   0.000   0.000   0.000  -0.000  -0.000   0.000   0.000  -0.000   0.000  -0.000  -0.000   0.000   0.000  -0.000   0.000
  0.000  -0.000   0.000  -0.000  -0.000   0.000  -0.000   0.000   0.000   0.000  -0.000   0.000  -0.000   0.000   0.000   0.000
  0.000  -0.000   0.000  -0.000   0.000  -0.000  -0.000   0.000   0.000   0.000   0.000  -0.000  -0.000   0.000   0.000   0.000
  0.000   0.000   0.000   0.000   0.000   0.000  -0.000  -0.000  -0.000   0.000   0.000   0.000  -0.000  -0.000  -0.000   0.000
 -0.000   0.000  -0.000   0.000   0.000  -0.000  -0.000  -0.000  -0.000  -0.000   0.000  -0.000  -0.000  -0.000  -0.000  -0.000
 total augmentation occupancy for first ion, spin component:           1
  2.000   0.000   0.000   0.000   0.000   0.000   0.000   0.000   0.000   0.000   0.000   0.000   0.000
  0.000   0.000   0.000   0.000   0.000   0.000   0.000   0.000   0.000   0.000   0.000   0.000   0.000
  0.000   0.000   0.667   0.000   0.000   0.000   0.000   0.000   0.000   0.000   0.000   0.000   0.000
  0.000   0.000   0.000   0.667   0.000   0.000   0.000   0.000   0.000   0.000   0.000   0.000   0.000
  0.000   0.000   0.000   0.000   0.667   0.000   0.000   0.000   0.000   0.000   0.000   0.000   0.000
  0.000   0.000   0.000   0.000   0.000   0.000   0.000   0.000   0.000   0.000   0.000   0.000   0.000
  0.000   0.000   0.000   0.000   0.000   0.000   0.000   0.000   0.000   0.000   0.000   0.000   0.000
  0.000   0.000   0.000   0.000   0.000   0.000   0.000   0.000   0.000   0.000   0.000   0.000   0.000
  0.000   0.000   0.000   0.000   0.000   0.000   0.000   0.000   0.000   0.000   0.000   0.000   0.000
  0.000   0.000   0.000   0.000   0.000   0.000   0.000   0.000   0.000   0.000   0.000   0.000   0.000
  0.000   0.000   0.000   0.000   0.000   0.000   0.000   0.000   0.000   0.000   0.000   0.000   0.000
  0.000   0.000   0.000   0.000   0.000   0.000   0.000   0.000   0.000   0.000   0.000   0.000   0.000
  0.000   0.000   0.000   0.000   0.000   0.000   0.000   0.000   0.000   0.000   0.000   0.000   0.000


------------------------ aborting loop because EDIFF is reached ----------------------------------------


    CHARGE:  cpu time    0.0297: real time    0.0298
    FORLOC:  cpu time    0.0002: real time    0.0003
    FORHF :  cpu time  808.8686: real time  809.1725
    FORNL :  cpu time    0.0440: real time    0.0441
    FORCOR:  cpu time    0.2322: real time    0.2325
    FORHAR:  cpu time    0.0026: real time    0.0026
    OFIELD:  cpu time    0.0000: real time    0.0000

 VOLUME and BASIS-vectors are now :
 -----------------------------------------------------------------------------
  energy-cutoff  :      450.00
  volume of cell :       44.68
      direct lattice vectors                 reciprocal lattice vectors
     0.000000000  2.816500000  2.816500000    -0.177525297  0.177525297  0.177525297
     2.816500000  0.000000000  2.816500000     0.177525297 -0.177525297  0.177525297
     2.816500000  2.816500000  0.000000000     0.177525297  0.177525297 -0.177525297

  length of vectors
     3.983132498  3.983132498  3.983132498     0.307482835  0.307482835  0.307482835


 FORCES acting on ions
    electron-ion (+dipol)            ewald-force                    non-local-force                 convergence-correction
 -----------------------------------------------------------------------------------------------
   0.713E-06 -.242E-05 -.356E-06   0.204E-14 0.421E-14 0.352E-14   0.139E-16 0.347E-17 0.434E-17   0.612E-06 -.727E-07 0.279E-06
   -.534E-05 0.720E-07 -.192E-05   -.214E-14 -.407E-14 -.341E-14   -.347E-17 0.347E-17 -.173E-17   0.182E-06 0.702E-07 0.359E-06
 -----------------------------------------------------------------------------------------------
   -.463E-05 -.234E-05 -.227E-05   -.101E-15 0.144E-15 0.110E-15   0.104E-16 0.694E-17 0.260E-17   0.794E-06 -.254E-08 0.638E-06
 
 
 POSITION                                       TOTAL-FORCE (eV/Angst)
 -----------------------------------------------------------------------------------
      0.00000      0.00000      0.00000         0.000000     -0.000000     -0.000000
      1.40825      1.40825      1.40825        -0.000000      0.000000      0.000000
 -----------------------------------------------------------------------------------
    total drift:                               -0.000004     -0.000002     -0.000002


--------------------------------------------------------------------------------------------------------



  FREE ENERGIE OF THE ION-ELECTRON SYSTEM (eV)
  ---------------------------------------------------
  free  energy   TOTEN  =       -10.46807107 eV

  energy  without entropy=      -10.46820696  energy(sigma->0) =      -10.46811637
 


--------------------------------------------------------------------------------------------------------


    POTLOK:  cpu time    0.2317: real time    0.2318


--------------------------------------------------------------------------------------------------------


     LOOP+:  cpu time 5718.5185: real time 5721.9620
    4ORBIT:  cpu time    0.0000: real time    0.0000

 total amount of memory used by VASP MPI-rank0    50133. kBytes
=======================================================================

   base      :      30000. kBytes
   nonl-proj :      11354. kBytes
   fftplans  :        272. kBytes
   grid      :        626. kBytes
   one-center:         16. kBytes
   HF        :         33. kBytes
   nonlr-proj:       2318. kBytes
   wavefun   :       5514. kBytes
 
  
  
 General timing and accounting informations for this job:
 ========================================================
  
                  Total CPU time used (sec):     5792.871
                            User time (sec):     5736.329
                          System time (sec):       56.542
                         Elapsed time (sec):     5796.457
  
                   Maximum memory used (kb):      219212.
                   Average memory used (kb):           0.
  
                          Minor page faults:      5895830
                          Major page faults:            0
                 Voluntary context switches:         1622
