 running on   56 total cores
 distrk:  each k-point on   56 cores,    1 groups
 distr:  one band on    1 cores,   56 groups
 using from now: INCAR     
 vasp.5.4.4.18Apr17-6-g9f103f2a35 (build Nov 08 2017 12:56:59) complex          
  
 POSCAR found type information on POSCAR  Ge
 POSCAR found :  1 types and       2 ions
 scaLAPACK will be used

 ----------------------------------------------------------------------------- 
|                                                                             |
|           W    W    AA    RRRRR   N    N  II  N    N   GGGG   !!!           |
|           W    W   A  A   R    R  NN   N  II  NN   N  G    G  !!!           |
|           W    W  A    A  R    R  N N  N  II  N N  N  G       !!!           |
|           W WW W  AAAAAA  RRRRR   N  N N  II  N  N N  G  GGG   !            |
|           WW  WW  A    A  R   R   N   NN  II  N   NN  G    G                |
|           W    W  A    A  R    R  N    N  II  N    N   GGGG   !!!           |
|                                                                             |
|      For optimal performance we recommend to set                            |
|        NCORE= 4 - approx SQRT( number of cores)                             |
|      NCORE specifies how many cores store one orbital (NPAR=cpu/NCORE).     |
|      This setting can  greatly improve the performance of VASP for DFT.     |
|      The default,   NCORE=1            might be grossly inefficient         |
|      on modern multi-core architectures or massively parallel machines.     |
|      Do your own testing !!!!                                               |
|      Unfortunately you need to use the default for GW and RPA calculations. |
|      (for HF NCORE is supported but not extensively tested yet)             |
|                                                                             |
 ----------------------------------------------------------------------------- 

 LDA part: xc-table for Pade appr. of Perdew

 ----------------------------------------------------------------------------- 
|                                                                             |
|           W    W    AA    RRRRR   N    N  II  N    N   GGGG   !!!           |
|           W    W   A  A   R    R  NN   N  II  NN   N  G    G  !!!           |
|           W    W  A    A  R    R  N N  N  II  N N  N  G       !!!           |
|           W WW W  AAAAAA  RRRRR   N  N N  II  N  N N  G  GGG   !            |
|           WW  WW  A    A  R   R   N   NN  II  N   NN  G    G                |
|           W    W  A    A  R    R  N    N  II  N    N   GGGG   !!!           |
|                                                                             |
|      Your generating k-point grid is not commensurate to the symmetry       |
|      of the lattice.  This can cause   slow convergence with respect        |
|      to k-points for HF type calculations                                   |
|      suggested SOLUTIONS:                                                   |
|       ) if not already the case, use automatic k-point generation           |
|       ) shift your grid to Gamma (G) (e.g. required for hex or fcc lattice) |
|                                                                             |
 ----------------------------------------------------------------------------- 

 found WAVECAR, reading the header
  number of k-points has changed, file:     8 present:   108
  trying to continue reading WAVECAR, but it might fail
 WARNING: stress and forces are not correct
 POSCAR, INCAR and KPOINTS ok, starting setup
 FFT: planning ...
 reading WAVECAR
 the WAVECAR file was read successfully
 reading imaginary part of occupancies ...
 charge-density read from file: unknown                                 
 entering main loop
       N       E                     dE             d eps       ncg     rms          ort
 gam= 0.000 g(H,U,f)=  0.720E-01 0.343E-01 0.855E-03 ort(H,U,f) = 0.000E+00 0.000E+00 0.000E+00
SDA:   1    -0.103870698133E+02   -0.10387E+02   -0.42887E-01  6048   0.107E+00 0.000E+00
 gam= 0.382 g(H,U,f)=  0.257E-01 0.241E-01 0.138E-02 ort(H,U,f) = 0.436E-01 0.281E-01 0.149E-02
DMP:   2    -0.104233108554E+02   -0.36241E-01   -0.31666E-01  6048   0.512E-01 0.732E-01
 gam= 0.382 g(H,U,f)=  0.347E-02 0.144E-01 0.930E-10 ort(H,U,f) = 0.158E-01 0.262E-01-0.543E-10
DMP:   3    -0.104472596247E+02   -0.23949E-01   -0.13580E-01  6048   0.179E-01 0.421E-01
 gam= 0.382 g(H,U,f)=  0.155E-03 0.791E-02 0.200E-10 ort(H,U,f) = 0.358E-03 0.176E-01-0.993E-11
DMP:   4    -0.104576136259E+02   -0.10354E-01   -0.59761E-02  6048   0.806E-02 0.180E-01
 gam= 0.382 g(H,U,f)=  0.527E-03 0.412E-02 0.578E-11 ort(H,U,f) =-0.110E-02 0.104E-01-0.475E-11
DMP:   5    -0.104624367674E+02   -0.48231E-02   -0.32729E-02  6048   0.465E-02 0.926E-02
 gam= 0.382 g(H,U,f)=  0.483E-03 0.207E-02 0.769E-12 ort(H,U,f) = 0.100E-04 0.564E-02-0.170E-11
DMP:   6    -0.104651961591E+02   -0.27594E-02   -0.18827E-02  6048   0.255E-02 0.565E-02
 gam= 0.382 g(H,U,f)=  0.167E-03 0.101E-02 0.199E-14 ort(H,U,f) = 0.240E-03 0.292E-02-0.146E-14
DMP:   7    -0.104667667637E+02   -0.15706E-02   -0.95314E-03  6048   0.118E-02 0.316E-02
 gam= 0.382 g(H,U,f)=  0.264E-04 0.483E-03-0.281E-14 ort(H,U,f) = 0.587E-04 0.146E-02-0.889E-14
DMP:   8    -0.104676817658E+02   -0.91500E-03   -0.43549E-03  6048   0.509E-03 0.152E-02
 gam= 0.382 g(H,U,f)=  0.103E-04 0.228E-03-0.162E-20 ort(H,U,f) =-0.119E-04 0.710E-03 0.319E-20
DMP:   9    -0.104680389024E+02   -0.35714E-03   -0.20194E-03  6048   0.238E-03 0.698E-03
 gam= 0.382 g(H,U,f)=  0.858E-05 0.106E-03 0.263E-13 ort(H,U,f) =-0.373E-05 0.340E-03-0.218E-13
DMP:  10    -0.104680710727E+02   -0.32170E-04   -0.97269E-04  6048   0.115E-03 0.336E-03
 final diagonalization
   1 F= -.10468071E+02 E0= -.10468116E+02  d E =0.135888E-03
