<?xml version="1.0" encoding="ISO-8859-1"?>
<modeling>
 <generator>
  <i name="program" type="string">vasp </i>
  <i name="version" type="string">5.4.4.18Apr17-6-g9f103f2a35  </i>
  <i name="subversion" type="string">(build Nov 08 2017 12:56:59) complex            parallel </i>
  <i name="platform" type="string">LinuxIFC </i>
  <i name="date" type="string">2020 06 23 </i>
  <i name="time" type="string">09:52:07 </i>
 </generator>
 <incar>
  <i type="string" name="PREC">n</i>
  <i type="string" name="ALGO"> D</i>
  <i type="logical" name="LDIAG"> T  </i>
  <i type="int" name="ICHARG">    11</i>
  <i name="ENCUT">    450.00000000</i>
  <i name="TIME">      0.40000000</i>
  <i name="SIGMA">      0.05000000</i>
  <i type="logical" name="LWAVE"> F  </i>
  <i type="logical" name="LCHARG"> F  </i>
  <v type="int" name="KPOINT_BSE">    -1     0     0     0</v>
  <i type="logical" name="LHFCALC"> T  </i>
  <i type="string" name="GGA"> PE</i>
  <i name="HFSCREEN">      0.20000000</i>
  <i name="AEXX">      0.25000000</i>
 </incar>
 <structure name="primitive_cell" >
  <crystal>
   <varray name="basis" >
    <v>       0.00000000       2.81650000       2.81650000 </v>
    <v>       2.81650000       0.00000000       2.81650000 </v>
    <v>       2.81650000       2.81650000       0.00000000 </v>
   </varray>
   <i name="volume">     44.68474278 </i>
   <varray name="rec_basis" >
    <v>      -0.17752530       0.17752530       0.17752530 </v>
    <v>       0.17752530      -0.17752530       0.17752530 </v>
    <v>       0.17752530       0.17752530      -0.17752530 </v>
   </varray>
  </crystal>
  <varray name="positions" >
   <v>       0.00000000       0.00000000       0.00000000 </v>
   <v>       0.25000000       0.25000000       0.25000000 </v>
  </varray>
 </structure>
 <varray name="primitive_index" >
  <v type="int" >        1 </v>
  <v type="int" >        2 </v>
 </varray>
 <kpoints>
  <varray name="kpointlist" >
   <v>       0.00000000       0.00000000       0.00000000 </v>
   <v>       0.25000000       0.00000000       0.00000000 </v>
   <v>       0.50000000       0.00000000       0.00000000 </v>
   <v>       0.25000000       0.25000000       0.00000000 </v>
   <v>       0.50000000       0.25000000       0.00000000 </v>
   <v>      -0.25000000       0.25000000       0.00000000 </v>
   <v>       0.50000000       0.50000000       0.00000000 </v>
   <v>      -0.25000000       0.50000000       0.25000000 </v>
   <v>       0.50000000       0.50000000       0.50000000 </v>
   <v>       0.48979592       0.48979592       0.48979592 </v>
   <v>       0.47959184       0.47959184       0.47959184 </v>
   <v>       0.46938776       0.46938776       0.46938776 </v>
   <v>       0.45918367       0.45918367       0.45918367 </v>
   <v>       0.44897959       0.44897959       0.44897959 </v>
   <v>       0.43877551       0.43877551       0.43877551 </v>
   <v>       0.42857143       0.42857143       0.42857143 </v>
   <v>       0.41836735       0.41836735       0.41836735 </v>
   <v>       0.40816327       0.40816327       0.40816327 </v>
   <v>       0.39795918       0.39795918       0.39795918 </v>
   <v>       0.38775510       0.38775510       0.38775510 </v>
   <v>       0.37755102       0.37755102       0.37755102 </v>
   <v>       0.36734694       0.36734694       0.36734694 </v>
   <v>       0.35714286       0.35714286       0.35714286 </v>
   <v>       0.34693878       0.34693878       0.34693878 </v>
   <v>       0.33673469       0.33673469       0.33673469 </v>
   <v>       0.32653061       0.32653061       0.32653061 </v>
   <v>       0.31632653       0.31632653       0.31632653 </v>
   <v>       0.30612245       0.30612245       0.30612245 </v>
   <v>       0.29591837       0.29591837       0.29591837 </v>
   <v>       0.28571429       0.28571429       0.28571429 </v>
   <v>       0.27551020       0.27551020       0.27551020 </v>
   <v>       0.26530612       0.26530612       0.26530612 </v>
   <v>       0.25510204       0.25510204       0.25510204 </v>
   <v>       0.24489796       0.24489796       0.24489796 </v>
   <v>       0.23469388       0.23469388       0.23469388 </v>
   <v>       0.22448980       0.22448980       0.22448980 </v>
   <v>       0.21428571       0.21428571       0.21428571 </v>
   <v>       0.20408163       0.20408163       0.20408163 </v>
   <v>       0.19387755       0.19387755       0.19387755 </v>
   <v>       0.18367347       0.18367347       0.18367347 </v>
   <v>       0.17346939       0.17346939       0.17346939 </v>
   <v>       0.16326531       0.16326531       0.16326531 </v>
   <v>       0.15306122       0.15306122       0.15306122 </v>
   <v>       0.14285714       0.14285714       0.14285714 </v>
   <v>       0.13265306       0.13265306       0.13265306 </v>
   <v>       0.12244898       0.12244898       0.12244898 </v>
   <v>       0.11224490       0.11224490       0.11224490 </v>
   <v>       0.10204082       0.10204082       0.10204082 </v>
   <v>       0.09183673       0.09183673       0.09183673 </v>
   <v>       0.08163265       0.08163265       0.08163265 </v>
   <v>       0.07142857       0.07142857       0.07142857 </v>
   <v>       0.06122449       0.06122449       0.06122449 </v>
   <v>       0.05102041       0.05102041       0.05102041 </v>
   <v>       0.04081633       0.04081633       0.04081633 </v>
   <v>       0.03061224       0.03061224       0.03061224 </v>
   <v>       0.02040816       0.02040816       0.02040816 </v>
   <v>       0.01020408       0.01020408       0.01020408 </v>
   <v>       0.00000000       0.00000000       0.00000000 </v>
   <v>       0.00000000       0.00000000       0.00000000 </v>
   <v>       0.01020408       0.00000000       0.01020408 </v>
   <v>       0.02040816       0.00000000       0.02040816 </v>
   <v>       0.03061224       0.00000000       0.03061224 </v>
   <v>       0.04081633       0.00000000       0.04081633 </v>
   <v>       0.05102041       0.00000000       0.05102041 </v>
   <v>       0.06122449       0.00000000       0.06122449 </v>
   <v>       0.07142857       0.00000000       0.07142857 </v>
   <v>       0.08163265       0.00000000       0.08163265 </v>
   <v>       0.09183673       0.00000000       0.09183673 </v>
   <v>       0.10204082       0.00000000       0.10204082 </v>
   <v>       0.11224490       0.00000000       0.11224490 </v>
   <v>       0.12244898       0.00000000       0.12244898 </v>
   <v>       0.13265306       0.00000000       0.13265306 </v>
   <v>       0.14285714       0.00000000       0.14285714 </v>
   <v>       0.15306122       0.00000000       0.15306122 </v>
   <v>       0.16326531       0.00000000       0.16326531 </v>
   <v>       0.17346939       0.00000000       0.17346939 </v>
   <v>       0.18367347       0.00000000       0.18367347 </v>
   <v>       0.19387755       0.00000000       0.19387755 </v>
   <v>       0.20408163       0.00000000       0.20408163 </v>
   <v>       0.21428571       0.00000000       0.21428571 </v>
   <v>       0.22448980       0.00000000       0.22448980 </v>
   <v>       0.23469388       0.00000000       0.23469388 </v>
   <v>       0.24489796       0.00000000       0.24489796 </v>
   <v>       0.25510204       0.00000000       0.25510204 </v>
   <v>       0.26530612       0.00000000       0.26530612 </v>
   <v>       0.27551020       0.00000000       0.27551020 </v>
   <v>       0.28571429       0.00000000       0.28571429 </v>
   <v>       0.29591837       0.00000000       0.29591837 </v>
   <v>       0.30612245       0.00000000       0.30612245 </v>
   <v>       0.31632653       0.00000000       0.31632653 </v>
   <v>       0.32653061       0.00000000       0.32653061 </v>
   <v>       0.33673469       0.00000000       0.33673469 </v>
   <v>       0.34693878       0.00000000       0.34693878 </v>
   <v>       0.35714286       0.00000000       0.35714286 </v>
   <v>       0.36734694       0.00000000       0.36734694 </v>
   <v>       0.37755102       0.00000000       0.37755102 </v>
   <v>       0.38775510       0.00000000       0.38775510 </v>
   <v>       0.39795918       0.00000000       0.39795918 </v>
   <v>       0.40816327       0.00000000       0.40816327 </v>
   <v>       0.41836735       0.00000000       0.41836735 </v>
   <v>       0.42857143       0.00000000       0.42857143 </v>
   <v>       0.43877551       0.00000000       0.43877551 </v>
   <v>       0.44897959       0.00000000       0.44897959 </v>
   <v>       0.45918367       0.00000000       0.45918367 </v>
   <v>       0.46938776       0.00000000       0.46938776 </v>
   <v>       0.47959184       0.00000000       0.47959184 </v>
   <v>       0.48979592       0.00000000       0.48979592 </v>
   <v>       0.50000000       0.00000000       0.50000000 </v>
  </varray>
  <varray name="weights" >
   <v>       0.01562500 </v>
   <v>       0.12500000 </v>
   <v>       0.06250000 </v>
   <v>       0.09375000 </v>
   <v>       0.37500000 </v>
   <v>       0.18750000 </v>
   <v>       0.04687500 </v>
   <v>       0.09375000 </v>
   <v>       0.00000000 </v>
   <v>       0.00000000 </v>
   <v>       0.00000000 </v>
   <v>       0.00000000 </v>
   <v>       0.00000000 </v>
   <v>       0.00000000 </v>
   <v>       0.00000000 </v>
   <v>       0.00000000 </v>
   <v>       0.00000000 </v>
   <v>       0.00000000 </v>
   <v>       0.00000000 </v>
   <v>       0.00000000 </v>
   <v>       0.00000000 </v>
   <v>       0.00000000 </v>
   <v>       0.00000000 </v>
   <v>       0.00000000 </v>
   <v>       0.00000000 </v>
   <v>       0.00000000 </v>
   <v>       0.00000000 </v>
   <v>       0.00000000 </v>
   <v>       0.00000000 </v>
   <v>       0.00000000 </v>
   <v>       0.00000000 </v>
   <v>       0.00000000 </v>
   <v>       0.00000000 </v>
   <v>       0.00000000 </v>
   <v>       0.00000000 </v>
   <v>       0.00000000 </v>
   <v>       0.00000000 </v>
   <v>       0.00000000 </v>
   <v>       0.00000000 </v>
   <v>       0.00000000 </v>
   <v>       0.00000000 </v>
   <v>       0.00000000 </v>
   <v>       0.00000000 </v>
   <v>       0.00000000 </v>
   <v>       0.00000000 </v>
   <v>       0.00000000 </v>
   <v>       0.00000000 </v>
   <v>       0.00000000 </v>
   <v>       0.00000000 </v>
   <v>       0.00000000 </v>
   <v>       0.00000000 </v>
   <v>       0.00000000 </v>
   <v>       0.00000000 </v>
   <v>       0.00000000 </v>
   <v>       0.00000000 </v>
   <v>       0.00000000 </v>
   <v>       0.00000000 </v>
   <v>       0.00000000 </v>
   <v>       0.00000000 </v>
   <v>       0.00000000 </v>
   <v>       0.00000000 </v>
   <v>       0.00000000 </v>
   <v>       0.00000000 </v>
   <v>       0.00000000 </v>
   <v>       0.00000000 </v>
   <v>       0.00000000 </v>
   <v>       0.00000000 </v>
   <v>       0.00000000 </v>
   <v>       0.00000000 </v>
   <v>       0.00000000 </v>
   <v>       0.00000000 </v>
   <v>       0.00000000 </v>
   <v>       0.00000000 </v>
   <v>       0.00000000 </v>
   <v>       0.00000000 </v>
   <v>       0.00000000 </v>
   <v>       0.00000000 </v>
   <v>       0.00000000 </v>
   <v>       0.00000000 </v>
   <v>       0.00000000 </v>
   <v>       0.00000000 </v>
   <v>       0.00000000 </v>
   <v>       0.00000000 </v>
   <v>       0.00000000 </v>
   <v>       0.00000000 </v>
   <v>       0.00000000 </v>
   <v>       0.00000000 </v>
   <v>       0.00000000 </v>
   <v>       0.00000000 </v>
   <v>       0.00000000 </v>
   <v>       0.00000000 </v>
   <v>       0.00000000 </v>
   <v>       0.00000000 </v>
   <v>       0.00000000 </v>
   <v>       0.00000000 </v>
   <v>       0.00000000 </v>
   <v>       0.00000000 </v>
   <v>       0.00000000 </v>
   <v>       0.00000000 </v>
   <v>       0.00000000 </v>
   <v>       0.00000000 </v>
   <v>       0.00000000 </v>
   <v>       0.00000000 </v>
   <v>       0.00000000 </v>
   <v>       0.00000000 </v>
   <v>       0.00000000 </v>
   <v>       0.00000000 </v>
   <v>       0.00000000 </v>
  </varray>
 </kpoints>
 <parameters>
  <separator name="general" >
   <i type="string" name="SYSTEM">unknown system</i>
   <i type="logical" name="LCOMPAT"> F  </i>
  </separator>
  <separator name="electronic" >
   <i type="string" name="PREC">n</i>
   <i name="ENMAX">    450.00000000</i>
   <i name="ENAUG">    385.84300000</i>
   <i name="EDIFF">      0.00010000</i>
   <i type="int" name="IALGO">    53</i>
   <i type="int" name="IWAVPR">    10</i>
   <i type="int" name="NBANDS">    56</i>
   <i name="NELECT">      8.00000000</i>
   <i type="int" name="TURBO">     0</i>
   <i type="int" name="IRESTART">     0</i>
   <i type="int" name="NREBOOT">     0</i>
   <i type="int" name="NMIN">     0</i>
   <i name="EREF">      0.00000000</i>
   <separator name="electronic smearing" >
    <i type="int" name="ISMEAR">     1</i>
    <i name="SIGMA">      0.05000000</i>
    <i name="KSPACING">      0.50000000</i>
    <i type="logical" name="KGAMMA"> T  </i>
   </separator>
   <separator name="electronic projectors" >
    <i type="logical" name="LREAL"> F  </i>
    <v name="ROPT">      0.00000000</v>
    <i type="int" name="LMAXPAW">  -100</i>
    <i type="int" name="LMAXMIX">     2</i>
    <i type="logical" name="NLSPLINE"> F  </i>
   </separator>
   <separator name="electronic startup" >
    <i type="int" name="ISTART">     1</i>
    <i type="int" name="ICHARG">    11</i>
    <i type="int" name="INIWAV">     1</i>
   </separator>
   <separator name="electronic spin" >
    <i type="int" name="ISPIN">     1</i>
    <i type="logical" name="LNONCOLLINEAR"> F  </i>
    <v name="MAGMOM">      1.00000000      1.00000000</v>
    <i name="NUPDOWN">     -1.00000000</i>
    <i type="logical" name="LSORBIT"> F  </i>
    <v name="SAXIS">      0.00000000      0.00000000      1.00000000</v>
    <i type="logical" name="LSPIRAL"> F  </i>
    <v name="QSPIRAL">      0.00000000      0.00000000      0.00000000</v>
    <i type="logical" name="LZEROZ"> F  </i>
   </separator>
   <separator name="electronic exchange-correlation" >
    <i type="logical" name="LASPH"> F  </i>
    <i type="logical" name="LMETAGGA"> F  </i>
   </separator>
   <separator name="electronic convergence" >
    <i type="int" name="NELM">    60</i>
    <i type="int" name="NELMDL">     0</i>
    <i type="int" name="NELMIN">     2</i>
    <i name="ENINI">    450.00000000</i>
    <separator name="electronic convergence detail" >
     <i type="logical" name="LDIAG"> T  </i>
     <i type="logical" name="LSUBROT"> F  </i>
     <i name="WEIMIN">      0.00000000</i>
     <i name="EBREAK">      0.00000045</i>
     <i name="DEPER">      0.30000000</i>
     <i type="int" name="NRMM">     4</i>
     <i name="TIME">      0.40000000</i>
    </separator>
   </separator>
   <separator name="electronic mixer" >
    <i name="AMIX">      0.40000000</i>
    <i name="BMIX">      1.00000000</i>
    <i name="AMIN">      0.10000000</i>
    <i name="AMIX_MAG">      1.60000000</i>
    <i name="BMIX_MAG">      1.00000000</i>
    <separator name="electronic mixer details" >
     <i type="int" name="IMIX">     4</i>
     <i type="logical" name="MIXFIRST"> F  </i>
     <i type="int" name="MAXMIX">   -45</i>
     <i name="WC">    100.00000000</i>
     <i type="int" name="INIMIX">     1</i>
     <i type="int" name="MIXPRE">     1</i>
     <i type="int" name="MREMOVE">     5</i>
    </separator>
   </separator>
   <separator name="electronic dipolcorrection" >
    <i type="logical" name="LDIPOL"> F  </i>
    <i type="logical" name="LMONO"> F  </i>
    <i type="int" name="IDIPOL">     0</i>
    <i name="EPSILON">      1.00000000</i>
    <v name="DIPOL">   -100.00000000   -100.00000000   -100.00000000</v>
    <i name="EFIELD">      0.00000000</i>
   </separator>
  </separator>
  <separator name="grids" >
   <i type="int" name="NGX">    24</i>
   <i type="int" name="NGY">    24</i>
   <i type="int" name="NGZ">    24</i>
   <i type="int" name="NGXF">    48</i>
   <i type="int" name="NGYF">    48</i>
   <i type="int" name="NGZF">    48</i>
   <i type="logical" name="ADDGRID"> F  </i>
  </separator>
  <separator name="ionic" >
   <i type="int" name="NSW">     0</i>
   <i type="int" name="IBRION">    -1</i>
   <i type="int" name="MDALGO">     0</i>
   <i type="int" name="ISIF">     0</i>
   <i name="PSTRESS">      0.00000000</i>
   <i name="EDIFFG">      0.00100000</i>
   <i type="int" name="NFREE">     0</i>
   <i name="POTIM">      0.50000000</i>
   <i name="SMASS">     -3.00000000</i>
   <i name="SCALEE">      1.00000000</i>
  </separator>
  <separator name="ionic md" >
   <i name="TEBEG">      0.00010000</i>
   <i name="TEEND">      0.00010000</i>
   <i type="int" name="NBLOCK">     1</i>
   <i type="int" name="KBLOCK">     1</i>
   <i type="int" name="NPACO">   256</i>
   <i name="APACO">     16.00000000</i>
  </separator>
  <separator name="symmetry" >
   <i type="int" name="ISYM">     3</i>
   <i name="SYMPREC">      0.00001000</i>
  </separator>
  <separator name="dos" >
   <i type="int" name="LORBIT">     0</i>
   <v name="RWIGS">     -1.00000000</v>
   <i type="int" name="NEDOS">   301</i>
   <i name="EMIN">     10.00000000</i>
   <i name="EMAX">    -10.00000000</i>
   <i name="EFERMI">      0.00000000</i>
  </separator>
  <separator name="writing" >
   <i type="int" name="NWRITE">     2</i>
   <i type="logical" name="LWAVE"> F  </i>
   <i type="logical" name="LDOWNSAMPLE"> F  </i>
   <i type="logical" name="LCHARG"> F  </i>
   <i type="logical" name="LPARD"> F  </i>
   <i type="logical" name="LVTOT"> F  </i>
   <i type="logical" name="LVHAR"> F  </i>
   <i type="logical" name="LELF"> F  </i>
   <i type="logical" name="LOPTICS"> F  </i>
   <v name="STM">      0.00000000      0.00000000      0.00000000      0.00000000      0.00000000      0.00000000      0.00000000</v>
  </separator>
  <separator name="performance" >
   <i type="int" name="NPAR">    56</i>
   <i type="int" name="NSIM">     4</i>
   <i type="int" name="NBLK">    -1</i>
   <i type="logical" name="LPLANE"> T  </i>
   <i type="logical" name="LSCALAPACK"> T  </i>
   <i type="logical" name="LSCAAWARE"> T  </i>
   <i type="logical" name="LSCALU"> F  </i>
   <i type="logical" name="LASYNC"> F  </i>
   <i type="logical" name="LORBITALREAL"> F  </i>
  </separator>
  <separator name="miscellaneous" >
   <i type="int" name="IDIOT">     3</i>
   <i type="int" name="ISPECIAL">     0</i>
   <i type="logical" name="LMUSIC"> F  </i>
   <v name="POMASS">     72.61000000</v>
   <v name="DARWINR">      0.00000000</v>
   <v name="DARWINV">      1.00000000</v>
   <i type="logical" name="LCORR"> T  </i>
  </separator>
  <i type="logical" name="GGA_COMPAT"> T  </i>
  <i type="logical" name="LBERRY"> F  </i>
  <i type="int" name="ICORELEVEL">     0</i>
  <i type="logical" name="LDAU"> F  </i>
  <i type="int" name="I_CONSTRAINED_M">     0</i>
  <separator name="electronic exchange-correlation" >
   <i type="string" name="GGA">PE</i>
   <i type="int" name="VOSKOWN">     0</i>
   <i type="logical" name="LHFCALC"> T  </i>
   <i type="string" name="PRECFOCK">normal</i>
   <i type="logical" name="LSYMGRAD"> F  </i>
   <i type="logical" name="LHFONE"> F  </i>
   <i type="logical" name="LRHFCALC"> F  </i>
   <i type="logical" name="LTHOMAS"> F  </i>
   <i type="logical" name="LMODELHF"> F  </i>
   <i name="ENCUT4O">     -1.00000000</i>
   <i type="int" name="EXXOEP">     0</i>
   <i type="int" name="FOURORBIT">     0</i>
   <i name="AEXX">      0.25000000</i>
   <i name="HFALPHA">     -1.00000000</i>
   <i name="MCALPHA">      0.00000000</i>
   <i name="ALDAX">      0.75000000</i>
   <i name="AGGAX">      0.75000000</i>
   <i name="ALDAC">      1.00000000</i>
   <i name="AGGAC">      1.00000000</i>
   <i type="int" name="NKREDX">     1</i>
   <i type="int" name="NKREDY">     1</i>
   <i type="int" name="NKREDZ">     1</i>
   <i type="logical" name="SHIFTRED"> F  </i>
   <i type="logical" name="ODDONLY"> F  </i>
   <i type="logical" name="EVENONLY"> F  </i>
   <i type="int" name="LMAXFOCK">     4</i>
   <i type="int" name="NMAXFOCKAE">     1</i>
   <i type="logical" name="LFOCKAEDFT"> F  </i>
   <i name="HFSCREEN">      0.20000000</i>
   <i name="HFSCREENC">      0.20000000</i>
   <i type="int" name="NBANDSGWLOW">     1</i>
  </separator>
  <separator name="vdW DFT" >
   <i type="logical" name="LUSE_VDW"> F  </i>
   <i name="Zab_VDW">     -0.84910000</i>
   <i name="PARAM1">      0.12340000</i>
   <i name="PARAM2">      1.00000000</i>
   <i name="PARAM3">      0.00000000</i>
  </separator>
  <separator name="model GW" >
   <i type="int" name="MODEL_GW">     0</i>
   <i name="MODEL_EPS0">     13.40542284</i>
   <i name="MODEL_ALPHA">      1.00000000</i>
  </separator>
  <separator name="linear response parameters" >
   <i type="logical" name="LEPSILON"> F  </i>
   <i type="logical" name="LRPA"> F  </i>
   <i type="logical" name="LNABLA"> F  </i>
   <i type="logical" name="LVEL"> F  </i>
   <i type="int" name="KINTER">     0</i>
   <i name="CSHIFT">      0.10000000</i>
   <i name="OMEGAMAX">     -1.00000000</i>
   <i name="DEG_THRESHOLD">      0.00200000</i>
   <i name="RTIME">     -0.10000000</i>
   <i name="WPLASMAI">      0.00000000</i>
   <v name="DFIELD">      0.00000000      0.00000000      0.00000000</v>
   <v name="WPLASMA">      0.00000000      0.00000000      0.00000000      0.00000000      0.00000000      0.00000000      0.00000000      0.00000000      0.00000000</v>
  </separator>
  <separator name="orbital magnetization" >
   <i type="logical" name="NUCIND"> F  </i>
   <v name="MAGPOS">      0.00000000      0.00000000      0.00000000</v>
   <i type="logical" name="LNICSALL"> T  </i>
   <i type="logical" name="ORBITALMAG"> F  </i>
   <i type="logical" name="LMAGBLOCH"> F  </i>
   <i type="logical" name="LCHIMAG"> F  </i>
   <i type="logical" name="LGAUGE"> T  </i>
   <i type="int" name="MAGATOM">     0</i>
   <v name="MAGDIPOL">      0.00000000      0.00000000      0.00000000</v>
   <v name="AVECCONST">      0.00000000      0.00000000      0.00000000</v>
  </separator>
  <separator name="response functions" >
   <i type="logical" name="LADDER"> F  </i>
   <i type="logical" name="LRPAFORCE"> F  </i>
   <i type="logical" name="LFXC"> F  </i>
   <i type="logical" name="LHARTREE"> T  </i>
   <i type="int" name="IBSE">     0</i>
   <v type="int" name="KPOINT">    -1     0     0     0</v>
   <i type="logical" name="LTCTE"> F  </i>
   <i type="logical" name="LTETE"> F  </i>
   <i type="logical" name="LTRIPLET"> F  </i>
   <i type="logical" name="LFXCEPS"> F  </i>
   <i type="logical" name="LFXHEG"> F  </i>
   <i type="int" name="NATURALO">     2</i>
   <i type="logical" name="L2ORDER"> F  </i>
   <i type="logical" name="LMP2LT"> F  </i>
   <i type="logical" name="LUSEW"> F  </i>
   <i name="ENCUTGW">     -2.00000000</i>
   <i name="ENCUTGWSOFT">     -2.00000000</i>
   <i name="ENCUTLF">     -1.00000000</i>
   <i type="int" name="LMAXMP2">    -1</i>
   <i name="SCISSOR">      0.00000000</i>
   <i type="int" name="NOMEGA">     0</i>
   <i type="int" name="NOMEGAR">     0</i>
   <i type="int" name="NBANDSGW">    -1</i>
   <i type="int" name="NBANDSO">    -1</i>
   <i type="int" name="NBANDSV">    -1</i>
   <i type="int" name="NELM">     1</i>
   <i type="int" name="NELMHF">     1</i>
   <i type="int" name="DIM">     3</i>
   <i type="int" name="ANTIRES">     0</i>
   <i name="OMEGAMAX">    -30.00000000</i>
   <i name="OMEGAMIN">    -30.00000000</i>
   <i name="OMEGATL">   -200.00000000</i>
   <i type="int" name="OMEGAGRID">   140</i>
   <i name="CSHIFT">     -0.10000000</i>
   <i type="logical" name="SELFENERGY"> F  </i>
   <i type="logical" name="LSPECTRAL"> F  </i>
   <i type="logical" name="LSPECTRALGW"> F  </i>
   <i type="logical" name="LSINGLES"> F  </i>
   <i type="logical" name="LFERMIGW"> F  </i>
   <i type="logical" name="ODDONLYGW"> F  </i>
   <i type="logical" name="EVENONLYGW"> F  </i>
   <i type="int" name="NKREDLFX">     1</i>
   <i type="int" name="NKREDLFY">     1</i>
   <i type="int" name="NKREDLFZ">     1</i>
   <i type="int" name="MAXMEM">  2800</i>
   <i type="int" name="TELESCOPE">     0</i>
   <i type="int" name="TAUPAR">     1</i>
   <i type="int" name="OMEGAPAR">    -1</i>
   <i name="LAMBDA">      1.00000000</i>
  </separator>
  <separator name="External order field" >
   <i name="OFIELD_KAPPA">      0.00000000</i>
   <v name="OFIELD_K">      0.00000000      0.00000000      0.00000000</v>
   <i name="OFIELD_Q6_NEAR">      0.00000000</i>
   <i name="OFIELD_Q6_FAR">      0.00000000</i>
   <i name="OFIELD_A">      0.00000000</i>
  </separator>
 </parameters>
 <atominfo>
  <atoms>       2 </atoms>
  <types>       1 </types>
  <array name="atoms" >
   <dimension dim="1">ion</dimension>
   <field type="string">element</field>
   <field type="int">atomtype</field>
   <set>
    <rc><c>Ge</c><c>   1</c></rc>
    <rc><c>Ge</c><c>   1</c></rc>
   </set>
  </array>
  <array name="atomtypes" >
   <dimension dim="1">type</dimension>
   <field type="int">atomspertype</field>
   <field type="string">element</field>
   <field>mass</field>
   <field>valence</field>
   <field type="string">pseudopotential</field>
   <set>
    <rc><c>   2</c><c>Ge</c><c>     72.61000000</c><c>      4.00000000</c><c>  PAW_PBE Ge 05Jan2001                  </c></rc>
   </set>
  </array>
 </atominfo>
 <structure name="initialpos" >
  <crystal>
   <varray name="basis" >
    <v>       0.00000000       2.81650000       2.81650000 </v>
    <v>       2.81650000       0.00000000       2.81650000 </v>
    <v>       2.81650000       2.81650000       0.00000000 </v>
   </varray>
   <i name="volume">     44.68474278 </i>
   <varray name="rec_basis" >
    <v>      -0.17752530       0.17752530       0.17752530 </v>
    <v>       0.17752530      -0.17752530       0.17752530 </v>
    <v>       0.17752530       0.17752530      -0.17752530 </v>
   </varray>
  </crystal>
  <varray name="positions" >
   <v>       0.00000000       0.00000000       0.00000000 </v>
   <v>       0.25000000       0.25000000       0.25000000 </v>
  </varray>
 </structure>
 <calculation>
  <scstep>
   <time name="total">  439.52  439.74</time>
   <energy>
    <i name="alphaZ">     17.10940282 </i>
    <i name="ewald">   -220.32663596 </i>
    <i name="hartreedc">    -15.78736395 </i>
    <i name="XCdc">    -12.14783997 </i>
    <i name="pawpsdc">    477.12181162 </i>
    <i name="pawaedc">   -453.66409710 </i>
    <i name="eentropy">      0.00022701 </i>
    <i name="bandstr">    -20.79769663 </i>
    <i name="atom">    207.36337913 </i>
    <i name="e_fr_energy">    -10.38706981 </i>
    <i name="e_wo_entrp">    -10.38729683 </i>
    <i name="e_0_energy">    -10.38714548 </i>
   </energy>
  </scstep>
  <scstep>
   <time name="total">  442.37  442.59</time>
   <energy>
    <i name="e_fr_energy">    -10.42331086 </i>
    <i name="e_wo_entrp">    -10.42344674 </i>
    <i name="e_0_energy">    -10.42335615 </i>
   </energy>
  </scstep>
  <scstep>
   <time name="total">  436.13  436.36</time>
   <energy>
    <i name="e_fr_energy">    -10.44725962 </i>
    <i name="e_wo_entrp">    -10.44739551 </i>
    <i name="e_0_energy">    -10.44730492 </i>
   </energy>
  </scstep>
  <scstep>
   <time name="total">  441.70  441.92</time>
   <energy>
    <i name="e_fr_energy">    -10.45761363 </i>
    <i name="e_wo_entrp">    -10.45774951 </i>
    <i name="e_0_energy">    -10.45765892 </i>
   </energy>
  </scstep>
  <scstep>
   <time name="total">  448.25  448.46</time>
   <energy>
    <i name="e_fr_energy">    -10.46243677 </i>
    <i name="e_wo_entrp">    -10.46257266 </i>
    <i name="e_0_energy">    -10.46248206 </i>
   </energy>
  </scstep>
  <scstep>
   <time name="total">  458.88  459.16</time>
   <energy>
    <i name="e_fr_energy">    -10.46519616 </i>
    <i name="e_wo_entrp">    -10.46533205 </i>
    <i name="e_0_energy">    -10.46524146 </i>
   </energy>
  </scstep>
  <scstep>
   <time name="total">  452.68  452.89</time>
   <energy>
    <i name="e_fr_energy">    -10.46676676 </i>
    <i name="e_wo_entrp">    -10.46676676 </i>
    <i name="e_0_energy">    -10.46676676 </i>
   </energy>
  </scstep>
  <scstep>
   <time name="total">  436.38  437.25</time>
   <energy>
    <i name="e_fr_energy">    -10.46768177 </i>
    <i name="e_wo_entrp">    -10.46768177 </i>
    <i name="e_0_energy">    -10.46768177 </i>
   </energy>
  </scstep>
  <scstep>
   <time name="total">  438.13  438.35</time>
   <energy>
    <i name="e_fr_energy">    -10.46803890 </i>
    <i name="e_wo_entrp">    -10.46817479 </i>
    <i name="e_0_energy">    -10.46808420 </i>
   </energy>
  </scstep>
  <scstep>
   <time name="total">  915.05  915.48</time>
   <energy>
    <i name="alphaZ">     17.10940282 </i>
    <i name="ewald">   -220.32663596 </i>
    <i name="hartreedc">    -15.78736395 </i>
    <i name="XCdc">    -12.14783997 </i>
    <i name="pawpsdc">    477.12181162 </i>
    <i name="pawaedc">   -453.66409710 </i>
    <i name="eentropy">      0.00013589 </i>
    <i name="bandstr">    -20.91718293 </i>
    <i name="atom">    207.36337913 </i>
    <i name="e_fr_energy">    -10.46807107 </i>
    <i name="e_wo_entrp">    -10.46820696 </i>
    <i name="e_0_energy">    -10.46811637 </i>
   </energy>
  </scstep>
  <structure>
   <crystal>
    <varray name="basis" >
     <v>       0.00000000       2.81650000       2.81650000 </v>
     <v>       2.81650000       0.00000000       2.81650000 </v>
     <v>       2.81650000       2.81650000       0.00000000 </v>
    </varray>
    <i name="volume">     44.68474278 </i>
    <varray name="rec_basis" >
     <v>      -0.17752530       0.17752530       0.17752530 </v>
     <v>       0.17752530      -0.17752530       0.17752530 </v>
     <v>       0.17752530       0.17752530      -0.17752530 </v>
    </varray>
   </crystal>
   <varray name="positions" >
    <v>       0.00000000       0.00000000       0.00000000 </v>
    <v>       0.25000000       0.25000000       0.25000000 </v>
   </varray>
  </structure>
  <varray name="forces" >
   <v>       0.00000000      -0.00000000      -0.00000000 </v>
   <v>      -0.00000000       0.00000000       0.00000000 </v>
  </varray>
  <energy>
   <i name="e_fr_energy">    -10.46807107 </i>
   <i name="e_wo_entrp">    -10.46811637 </i>
   <i name="e_0_energy">      0.00013589 </i>
  </energy>
  <time name="totalsc"> 5718.52 5721.96</time>
  <eigenvalues>
   <array>
    <dimension dim="1">band</dimension>
    <dimension dim="2">kpoint</dimension>
    <dimension dim="3">spin</dimension>
    <field>eigene</field>
    <field>occ</field>
    <set>
     <set comment="spin 1">
      <set comment="kpoint 1">
       <r>  -10.6019    1.0000 </r>
       <r>    3.5326    1.0000 </r>
       <r>    3.5326    1.0000 </r>
       <r>    3.5326    1.0000 </r>
       <r>    4.6643   -0.0000 </r>
       <r>    6.7800    0.0000 </r>
       <r>    6.7800    0.0000 </r>
       <r>    6.7800    0.0000 </r>
       <r>   10.8682    0.0000 </r>
       <r>   13.6813    0.0000 </r>
       <r>   13.6813    0.0000 </r>
       <r>   15.2459    0.0000 </r>
       <r>   15.2459    0.0000 </r>
       <r>   15.2459    0.0000 </r>
       <r>   18.2767    0.0000 </r>
       <r>   29.1210    0.0000 </r>
       <r>   29.1210    0.0000 </r>
       <r>   29.1210    0.0000 </r>
       <r>   30.3352    0.0000 </r>
       <r>   30.3352    0.0000 </r>
       <r>   30.3352    0.0000 </r>
       <r>   30.4006    0.0000 </r>
       <r>   30.4006    0.0000 </r>
       <r>   31.3798    0.0000 </r>
       <r>   31.3798    0.0000 </r>
       <r>   31.3798    0.0000 </r>
       <r>   39.5712    0.0000 </r>
       <r>   40.0248    0.0000 </r>
       <r>   40.0248    0.0000 </r>
       <r>   40.0248    0.0000 </r>
       <r>   42.8160    0.0000 </r>
       <r>   42.8160    0.0000 </r>
       <r>   43.4701    0.0000 </r>
       <r>   43.4701    0.0000 </r>
       <r>   44.9236    0.0000 </r>
       <r>   44.9236    0.0000 </r>
       <r>   44.9236    0.0000 </r>
       <r>   45.1213    0.0000 </r>
       <r>   45.4432    0.0000 </r>
       <r>   45.4432    0.0000 </r>
       <r>   45.4432    0.0000 </r>
       <r>   46.1935    0.0000 </r>
       <r>   46.1935    0.0000 </r>
       <r>   46.1935    0.0000 </r>
       <r>   46.6010    0.0000 </r>
       <r>   46.6010    0.0000 </r>
       <r>   46.6011    0.0000 </r>
       <r>   47.6034    0.0000 </r>
       <r>   47.6034    0.0000 </r>
       <r>   47.6034    0.0000 </r>
       <r>   50.9752    0.0000 </r>
       <r>   52.9327    0.0000 </r>
       <r>   52.9327    0.0000 </r>
       <r>   53.0007    0.0000 </r>
       <r>   53.0490    0.0000 </r>
       <r>   53.0493    0.0000 </r>
      </set>
      <set comment="kpoint 2">
       <r>   -9.7695    1.0000 </r>
       <r>   -1.4945    1.0000 </r>
       <r>    2.5804    1.0000 </r>
       <r>    2.5804    1.0000 </r>
       <r>    5.0065    0.0000 </r>
       <r>    7.9282    0.0000 </r>
       <r>    7.9282    0.0000 </r>
       <r>   10.2328    0.0000 </r>
       <r>   12.4541    0.0000 </r>
       <r>   12.5831    0.0000 </r>
       <r>   12.5831    0.0000 </r>
       <r>   15.5200    0.0000 </r>
       <r>   19.4741    0.0000 </r>
       <r>   19.4741    0.0000 </r>
       <r>   22.4147    0.0000 </r>
       <r>   22.6321    0.0000 </r>
       <r>   22.6321    0.0000 </r>
       <r>   23.4204    0.0000 </r>
       <r>   30.2350    0.0000 </r>
       <r>   30.2350    0.0000 </r>
       <r>   31.2009    0.0000 </r>
       <r>   31.2009    0.0000 </r>
       <r>   32.0311    0.0000 </r>
       <r>   32.8548    0.0000 </r>
       <r>   33.7955    0.0000 </r>
       <r>   34.9531    0.0000 </r>
       <r>   34.9531    0.0000 </r>
       <r>   37.8459    0.0000 </r>
       <r>   37.8459    0.0000 </r>
       <r>   38.2370    0.0000 </r>
       <r>   38.2370    0.0000 </r>
       <r>   40.1028    0.0000 </r>
       <r>   40.6643    0.0000 </r>
       <r>   40.6643    0.0000 </r>
       <r>   40.9921    0.0000 </r>
       <r>   41.3255    0.0000 </r>
       <r>   43.7192    0.0000 </r>
       <r>   43.7192    0.0000 </r>
       <r>   44.7178    0.0000 </r>
       <r>   45.7084    0.0000 </r>
       <r>   45.9473    0.0000 </r>
       <r>   45.9473    0.0000 </r>
       <r>   46.3694    0.0000 </r>
       <r>   49.8735    0.0000 </r>
       <r>   49.8735    0.0000 </r>
       <r>   51.0401    0.0000 </r>
       <r>   51.0402    0.0000 </r>
       <r>   51.9428    0.0000 </r>
       <r>   52.2271    0.0000 </r>
       <r>   52.2271    0.0000 </r>
       <r>   53.6443    0.0000 </r>
       <r>   54.7831    0.0000 </r>
       <r>   57.8636    0.0000 </r>
       <r>   57.8712    0.0000 </r>
       <r>   58.5442    0.0000 </r>
       <r>   58.5892    0.0000 </r>
      </set>
      <set comment="kpoint 3">
       <r>   -8.2432    1.0000 </r>
       <r>   -4.8095    1.0000 </r>
       <r>    1.9904    1.0000 </r>
       <r>    1.9904    1.0000 </r>
       <r>    4.4740   -0.0000 </r>
       <r>    7.9987    0.0000 </r>
       <r>    7.9987    0.0000 </r>
       <r>   11.4972    0.0000 </r>
       <r>   15.2352    0.0000 </r>
       <r>   15.8388    0.0000 </r>
       <r>   15.8388    0.0000 </r>
       <r>   16.2297    0.0000 </r>
       <r>   16.6679    0.0000 </r>
       <r>   16.6680    0.0000 </r>
       <r>   23.5916    0.0000 </r>
       <r>   24.7488    0.0000 </r>
       <r>   26.2681    0.0000 </r>
       <r>   26.2681    0.0000 </r>
       <r>   26.3334    0.0000 </r>
       <r>   26.3334    0.0000 </r>
       <r>   29.5235    0.0000 </r>
       <r>   30.7663    0.0000 </r>
       <r>   31.2327    0.0000 </r>
       <r>   31.2327    0.0000 </r>
       <r>   32.2906    0.0000 </r>
       <r>   32.2906    0.0000 </r>
       <r>   33.0090    0.0000 </r>
       <r>   36.1300    0.0000 </r>
       <r>   36.1300    0.0000 </r>
       <r>   36.2761    0.0000 </r>
       <r>   36.2761    0.0000 </r>
       <r>   37.2365    0.0000 </r>
       <r>   38.2769    0.0000 </r>
       <r>   38.4577    0.0000 </r>
       <r>   43.4510    0.0000 </r>
       <r>   43.4510    0.0000 </r>
       <r>   43.9509    0.0000 </r>
       <r>   45.0130    0.0000 </r>
       <r>   45.0130    0.0000 </r>
       <r>   45.9718    0.0000 </r>
       <r>   49.4156    0.0000 </r>
       <r>   49.4156    0.0000 </r>
       <r>   50.6267    0.0000 </r>
       <r>   50.6267    0.0000 </r>
       <r>   51.4846    0.0000 </r>
       <r>   53.6169    0.0000 </r>
       <r>   53.9258    0.0000 </r>
       <r>   53.9258    0.0000 </r>
       <r>   55.4188    0.0000 </r>
       <r>   55.4191    0.0000 </r>
       <r>   56.0237    0.0000 </r>
       <r>   57.1746    0.0000 </r>
       <r>   57.1759    0.0000 </r>
       <r>   59.2754    0.0000 </r>
       <r>   59.2924    0.0000 </r>
       <r>   59.8955    0.0000 </r>
      </set>
      <set comment="kpoint 4">
       <r>   -9.4682    1.0000 </r>
       <r>   -1.4117    1.0000 </r>
       <r>    1.3046    1.0000 </r>
       <r>    1.3046    1.0000 </r>
       <r>    5.1214    0.0000 </r>
       <r>    7.0826    0.0000 </r>
       <r>   10.3300    0.0000 </r>
       <r>   10.3300    0.0000 </r>
       <r>   11.6219    0.0000 </r>
       <r>   14.7781    0.0000 </r>
       <r>   14.8066    0.0000 </r>
       <r>   17.3910    0.0000 </r>
       <r>   17.3910    0.0000 </r>
       <r>   18.0139    0.0000 </r>
       <r>   22.2451    0.0000 </r>
       <r>   22.2451    0.0000 </r>
       <r>   23.4552    0.0000 </r>
       <r>   24.5319    0.0000 </r>
       <r>   25.1825    0.0000 </r>
       <r>   30.1344    0.0000 </r>
       <r>   31.6618    0.0000 </r>
       <r>   31.7728    0.0000 </r>
       <r>   31.7728    0.0000 </r>
       <r>   32.8478    0.0000 </r>
       <r>   32.8478    0.0000 </r>
       <r>   33.8146    0.0000 </r>
       <r>   34.4443    0.0000 </r>
       <r>   37.7712    0.0000 </r>
       <r>   38.9195    0.0000 </r>
       <r>   39.0625    0.0000 </r>
       <r>   39.0625    0.0000 </r>
       <r>   39.9892    0.0000 </r>
       <r>   39.9892    0.0000 </r>
       <r>   40.8241    0.0000 </r>
       <r>   42.3997    0.0000 </r>
       <r>   42.3997    0.0000 </r>
       <r>   42.8994    0.0000 </r>
       <r>   43.1087    0.0000 </r>
       <r>   43.7257    0.0000 </r>
       <r>   45.7065    0.0000 </r>
       <r>   46.0139    0.0000 </r>
       <r>   46.0139    0.0000 </r>
       <r>   47.8215    0.0000 </r>
       <r>   50.1480    0.0000 </r>
       <r>   50.1480    0.0000 </r>
       <r>   50.4544    0.0000 </r>
       <r>   50.6295    0.0000 </r>
       <r>   51.9333    0.0000 </r>
       <r>   51.9333    0.0000 </r>
       <r>   52.1050    0.0000 </r>
       <r>   53.2657    0.0000 </r>
       <r>   53.6087    0.0000 </r>
       <r>   56.9299    0.0000 </r>
       <r>   58.1769    0.0000 </r>
       <r>   58.1801    0.0000 </r>
       <r>   61.0866    0.0000 </r>
      </set>
      <set comment="kpoint 5">
       <r>   -7.7822    1.0000 </r>
       <r>   -4.5109    1.0000 </r>
       <r>   -0.5229    1.0000 </r>
       <r>    0.8878    1.0000 </r>
       <r>    5.5704    0.0000 </r>
       <r>    8.6707    0.0000 </r>
       <r>    9.8245    0.0000 </r>
       <r>   10.6769    0.0000 </r>
       <r>   14.6558    0.0000 </r>
       <r>   15.8558    0.0000 </r>
       <r>   16.5514    0.0000 </r>
       <r>   17.0201    0.0000 </r>
       <r>   17.7562    0.0000 </r>
       <r>   21.3503    0.0000 </r>
       <r>   22.3863    0.0000 </r>
       <r>   23.6488    0.0000 </r>
       <r>   24.0751    0.0000 </r>
       <r>   24.1314    0.0000 </r>
       <r>   24.5493    0.0000 </r>
       <r>   26.5327    0.0000 </r>
       <r>   28.5578    0.0000 </r>
       <r>   29.0703    0.0000 </r>
       <r>   29.8089    0.0000 </r>
       <r>   31.2952    0.0000 </r>
       <r>   32.5293    0.0000 </r>
       <r>   33.0527    0.0000 </r>
       <r>   33.0795    0.0000 </r>
       <r>   34.1836    0.0000 </r>
       <r>   35.5595    0.0000 </r>
       <r>   37.4943    0.0000 </r>
       <r>   38.0800    0.0000 </r>
       <r>   39.5504    0.0000 </r>
       <r>   40.3055    0.0000 </r>
       <r>   40.4936    0.0000 </r>
       <r>   40.9297    0.0000 </r>
       <r>   43.7535    0.0000 </r>
       <r>   45.5323    0.0000 </r>
       <r>   46.0966    0.0000 </r>
       <r>   47.0024    0.0000 </r>
       <r>   47.1014    0.0000 </r>
       <r>   47.1375    0.0000 </r>
       <r>   48.3660    0.0000 </r>
       <r>   48.6427    0.0000 </r>
       <r>   50.1376    0.0000 </r>
       <r>   50.8786    0.0000 </r>
       <r>   51.6110    0.0000 </r>
       <r>   52.5770    0.0000 </r>
       <r>   53.1658    0.0000 </r>
       <r>   55.0503    0.0000 </r>
       <r>   55.9827    0.0000 </r>
       <r>   56.8001    0.0000 </r>
       <r>   57.0971    0.0000 </r>
       <r>   57.8268    0.0000 </r>
       <r>   59.4167    0.0000 </r>
       <r>   59.7911    0.0000 </r>
       <r>   61.5152    0.0000 </r>
      </set>
      <set comment="kpoint 6">
       <r>   -8.4800    1.0000 </r>
       <r>   -3.5284    1.0000 </r>
       <r>   -0.6893    1.0000 </r>
       <r>    1.8907    1.0000 </r>
       <r>    6.2650    0.0000 </r>
       <r>    9.2186    0.0000 </r>
       <r>    9.5105    0.0000 </r>
       <r>    9.7992    0.0000 </r>
       <r>   11.8724    0.0000 </r>
       <r>   14.1003    0.0000 </r>
       <r>   16.6105    0.0000 </r>
       <r>   17.1307    0.0000 </r>
       <r>   18.3734    0.0000 </r>
       <r>   20.9639    0.0000 </r>
       <r>   22.6310    0.0000 </r>
       <r>   23.2820    0.0000 </r>
       <r>   23.6243    0.0000 </r>
       <r>   25.4268    0.0000 </r>
       <r>   26.1990    0.0000 </r>
       <r>   27.7645    0.0000 </r>
       <r>   28.5560    0.0000 </r>
       <r>   29.6308    0.0000 </r>
       <r>   30.4076    0.0000 </r>
       <r>   30.5511    0.0000 </r>
       <r>   32.4845    0.0000 </r>
       <r>   32.5637    0.0000 </r>
       <r>   34.2271    0.0000 </r>
       <r>   34.4453    0.0000 </r>
       <r>   38.2424    0.0000 </r>
       <r>   38.7332    0.0000 </r>
       <r>   39.0619    0.0000 </r>
       <r>   39.3027    0.0000 </r>
       <r>   40.1794    0.0000 </r>
       <r>   40.5729    0.0000 </r>
       <r>   40.6668    0.0000 </r>
       <r>   40.7466    0.0000 </r>
       <r>   40.8776    0.0000 </r>
       <r>   45.2388    0.0000 </r>
       <r>   46.2482    0.0000 </r>
       <r>   47.5988    0.0000 </r>
       <r>   48.0091    0.0000 </r>
       <r>   48.2743    0.0000 </r>
       <r>   50.8289    0.0000 </r>
       <r>   51.1832    0.0000 </r>
       <r>   52.0287    0.0000 </r>
       <r>   52.5416    0.0000 </r>
       <r>   52.5645    0.0000 </r>
       <r>   53.1619    0.0000 </r>
       <r>   53.7174    0.0000 </r>
       <r>   54.6497    0.0000 </r>
       <r>   55.4060    0.0000 </r>
       <r>   57.1234    0.0000 </r>
       <r>   57.7962    0.0000 </r>
       <r>   57.9754    0.0000 </r>
       <r>   58.6853    0.0000 </r>
       <r>   58.7014    0.0000 </r>
      </set>
      <set comment="kpoint 7">
       <r>   -6.2097    1.0000 </r>
       <r>   -6.2097    1.0000 </r>
       <r>    0.1319    1.0000 </r>
       <r>    0.1319    1.0000 </r>
       <r>    4.8292   -0.0000 </r>
       <r>    4.8292   -0.0000 </r>
       <r>   14.4336    0.0000 </r>
       <r>   14.4336    0.0000 </r>
       <r>   16.5736    0.0000 </r>
       <r>   16.5736    0.0000 </r>
       <r>   17.0777    0.0000 </r>
       <r>   17.0777    0.0000 </r>
       <r>   18.0530    0.0000 </r>
       <r>   18.0530    0.0000 </r>
       <r>   23.6222    0.0000 </r>
       <r>   23.6222    0.0000 </r>
       <r>   23.6601    0.0000 </r>
       <r>   23.6601    0.0000 </r>
       <r>   23.7592    0.0000 </r>
       <r>   23.7592    0.0000 </r>
       <r>   24.4733    0.0000 </r>
       <r>   24.4733    0.0000 </r>
       <r>   31.8158    0.0000 </r>
       <r>   31.8158    0.0000 </r>
       <r>   33.5877    0.0000 </r>
       <r>   33.5877    0.0000 </r>
       <r>   36.8655    0.0000 </r>
       <r>   36.8655    0.0000 </r>
       <r>   37.2657    0.0000 </r>
       <r>   37.2657    0.0000 </r>
       <r>   39.7272    0.0000 </r>
       <r>   39.7272    0.0000 </r>
       <r>   39.7442    0.0000 </r>
       <r>   39.7442    0.0000 </r>
       <r>   41.2862    0.0000 </r>
       <r>   41.2862    0.0000 </r>
       <r>   43.4492    0.0000 </r>
       <r>   43.4492    0.0000 </r>
       <r>   43.8342    0.0000 </r>
       <r>   43.8342    0.0000 </r>
       <r>   48.0897    0.0000 </r>
       <r>   48.0897    0.0000 </r>
       <r>   51.1927    0.0000 </r>
       <r>   51.1927    0.0000 </r>
       <r>   51.7988    0.0000 </r>
       <r>   51.7988    0.0000 </r>
       <r>   56.1567    0.0000 </r>
       <r>   56.1622    0.0000 </r>
       <r>   57.5271    0.0000 </r>
       <r>   57.5313    0.0000 </r>
       <r>   58.2083    0.0000 </r>
       <r>   58.2350    0.0000 </r>
       <r>   58.3850    0.0000 </r>
       <r>   58.4077    0.0000 </r>
       <r>   59.3225    0.0000 </r>
       <r>   59.6161    0.0000 </r>
      </set>
      <set comment="kpoint 8">
       <r>   -6.0935    1.0000 </r>
       <r>   -6.0935    1.0000 </r>
       <r>   -0.7573    1.0000 </r>
       <r>   -0.7573    1.0000 </r>
       <r>    8.8368    0.0000 </r>
       <r>    8.8368    0.0000 </r>
       <r>    8.9543    0.0000 </r>
       <r>    8.9543    0.0000 </r>
       <r>   15.7381    0.0000 </r>
       <r>   15.7381    0.0000 </r>
       <r>   17.6176    0.0000 </r>
       <r>   17.6176    0.0000 </r>
       <r>   20.9066    0.0000 </r>
       <r>   20.9066    0.0000 </r>
       <r>   21.8485    0.0000 </r>
       <r>   21.8485    0.0000 </r>
       <r>   24.4174    0.0000 </r>
       <r>   24.4174    0.0000 </r>
       <r>   25.5669    0.0000 </r>
       <r>   25.5669    0.0000 </r>
       <r>   27.9710    0.0000 </r>
       <r>   27.9710    0.0000 </r>
       <r>   30.6842    0.0000 </r>
       <r>   30.6842    0.0000 </r>
       <r>   30.7605    0.0000 </r>
       <r>   30.7605    0.0000 </r>
       <r>   31.5759    0.0000 </r>
       <r>   31.5759    0.0000 </r>
       <r>   37.3112    0.0000 </r>
       <r>   37.3112    0.0000 </r>
       <r>   39.1972    0.0000 </r>
       <r>   39.1972    0.0000 </r>
       <r>   41.2509    0.0000 </r>
       <r>   41.2509    0.0000 </r>
       <r>   43.1132    0.0000 </r>
       <r>   43.1132    0.0000 </r>
       <r>   46.0463    0.0000 </r>
       <r>   46.0463    0.0000 </r>
       <r>   46.9980    0.0000 </r>
       <r>   46.9980    0.0000 </r>
       <r>   49.2798    0.0000 </r>
       <r>   49.2798    0.0000 </r>
       <r>   49.4650    0.0000 </r>
       <r>   49.4650    0.0000 </r>
       <r>   50.6877    0.0000 </r>
       <r>   50.6877    0.0000 </r>
       <r>   53.1869    0.0000 </r>
       <r>   53.1870    0.0000 </r>
       <r>   56.8604    0.0000 </r>
       <r>   56.8622    0.0000 </r>
       <r>   56.8995    0.0000 </r>
       <r>   56.9033    0.0000 </r>
       <r>   58.1614    0.0000 </r>
       <r>   58.1703    0.0000 </r>
       <r>   60.0591    0.0000 </r>
       <r>   60.1627    0.0000 </r>
      </set>
      <set comment="kpoint 9">
       <r>   -8.2427    1.0000 </r>
       <r>   -4.8092    1.0000 </r>
       <r>    1.9976    1.0000 </r>
       <r>    2.0206    1.0000 </r>
       <r>    4.4494   -0.0000 </r>
       <r>    7.9937    0.0000 </r>
       <r>    8.0070    0.0000 </r>
       <r>   11.4873    0.0000 </r>
       <r>   15.3082    0.0000 </r>
       <r>   15.8498    0.0000 </r>
       <r>   15.8930    0.0000 </r>
       <r>   16.2159    0.0000 </r>
       <r>   16.5513    0.0000 </r>
       <r>   16.6621    0.0000 </r>
       <r>   23.6393    0.0000 </r>
       <r>   24.7199    0.0000 </r>
       <r>   26.2877    0.0000 </r>
       <r>   26.2995    0.0000 </r>
       <r>   26.3144    0.0000 </r>
       <r>   26.3190    0.0000 </r>
       <r>   29.5634    0.0000 </r>
       <r>   30.7625    0.0000 </r>
       <r>   31.3323    0.0000 </r>
       <r>   31.4722    0.0000 </r>
       <r>   32.2885    0.0000 </r>
       <r>   32.5380    0.0000 </r>
       <r>   33.0546    0.0000 </r>
       <r>   36.1940    0.0000 </r>
       <r>   36.3033    0.0000 </r>
       <r>   36.8837    0.0000 </r>
       <r>   37.0395    0.0000 </r>
       <r>   37.0907    0.0000 </r>
       <r>   40.5732    0.0000 </r>
       <r>   40.5813    0.0000 </r>
       <r>   43.1200    0.0000 </r>
       <r>   44.8106    0.0000 </r>
       <r>   44.8117    0.0000 </r>
       <r>   48.5200    0.0000 </r>
       <r>   49.1277    0.0000 </r>
       <r>   50.1825    0.0000 </r>
       <r>   51.8984    0.0000 </r>
       <r>   52.3644    0.0000 </r>
       <r>   53.9714    0.0000 </r>
       <r>   54.4947    0.0000 </r>
       <r>   55.0394    0.0000 </r>
       <r>   56.2561    0.0000 </r>
       <r>   59.0571    0.0000 </r>
       <r>   59.9900    0.0000 </r>
       <r>   60.4185    0.0000 </r>
       <r>   63.1565    0.0000 </r>
       <r>   66.6022    0.0000 </r>
       <r>   67.7560    0.0000 </r>
       <r>   69.2806    0.0000 </r>
       <r>   72.4164    0.0000 </r>
       <r>   75.7286    0.0000 </r>
       <r>   84.4234    0.0000 </r>
      </set>
      <set comment="kpoint 10">
       <r>   -8.2482    1.0000 </r>
       <r>   -4.8007    1.0000 </r>
       <r>    1.9986    1.0000 </r>
       <r>    2.0216    1.0000 </r>
       <r>    4.4503   -0.0000 </r>
       <r>    7.9935    0.0000 </r>
       <r>    8.0082    0.0000 </r>
       <r>   11.4890    0.0000 </r>
       <r>   15.2623    0.0000 </r>
       <r>   15.7795    0.0000 </r>
       <r>   15.7915    0.0000 </r>
       <r>   16.2909    0.0000 </r>
       <r>   16.6473    0.0000 </r>
       <r>   16.7141    0.0000 </r>
       <r>   23.5379    0.0000 </r>
       <r>   24.8260    0.0000 </r>
       <r>   25.9982    0.0000 </r>
       <r>   25.9998    0.0000 </r>
       <r>   26.6086    0.0000 </r>
       <r>   26.6177    0.0000 </r>
       <r>   29.4616    0.0000 </r>
       <r>   30.9386    0.0000 </r>
       <r>   31.3104    0.0000 </r>
       <r>   31.4075    0.0000 </r>
       <r>   32.2762    0.0000 </r>
       <r>   32.5284    0.0000 </r>
       <r>   33.0148    0.0000 </r>
       <r>   36.1838    0.0000 </r>
       <r>   36.3285    0.0000 </r>
       <r>   36.8748    0.0000 </r>
       <r>   37.0377    0.0000 </r>
       <r>   37.0561    0.0000 </r>
       <r>   40.5022    0.0000 </r>
       <r>   40.5875    0.0000 </r>
       <r>   43.1644    0.0000 </r>
       <r>   44.7961    0.0000 </r>
       <r>   44.8575    0.0000 </r>
       <r>   48.3659    0.0000 </r>
       <r>   48.8131    0.0000 </r>
       <r>   50.1064    0.0000 </r>
       <r>   51.6735    0.0000 </r>
       <r>   52.1011    0.0000 </r>
       <r>   54.1114    0.0000 </r>
       <r>   54.4978    0.0000 </r>
       <r>   54.8423    0.0000 </r>
       <r>   56.1453    0.0000 </r>
       <r>   59.1227    0.0000 </r>
       <r>   59.5499    0.0000 </r>
       <r>   60.1153    0.0000 </r>
       <r>   62.9909    0.0000 </r>
       <r>   66.2524    0.0000 </r>
       <r>   67.4889    0.0000 </r>
       <r>   69.2948    0.0000 </r>
       <r>   72.5007    0.0000 </r>
       <r>   75.8835    0.0000 </r>
       <r>   84.3122    0.0000 </r>
      </set>
      <set comment="kpoint 11">
       <r>   -8.2644    1.0000 </r>
       <r>   -4.7754    1.0000 </r>
       <r>    2.0016    1.0000 </r>
       <r>    2.0247    1.0000 </r>
       <r>    4.4531   -0.0000 </r>
       <r>    7.9950    0.0000 </r>
       <r>    8.0098    0.0000 </r>
       <r>   11.4936    0.0000 </r>
       <r>   15.1355    0.0000 </r>
       <r>   15.6251    0.0000 </r>
       <r>   15.6551    0.0000 </r>
       <r>   16.4269    0.0000 </r>
       <r>   16.8094    0.0000 </r>
       <r>   16.8495    0.0000 </r>
       <r>   23.3301    0.0000 </r>
       <r>   25.0471    0.0000 </r>
       <r>   25.6973    0.0000 </r>
       <r>   25.6999    0.0000 </r>
       <r>   26.9131    0.0000 </r>
       <r>   26.9237    0.0000 </r>
       <r>   29.2533    0.0000 </r>
       <r>   31.1500    0.0000 </r>
       <r>   31.2621    0.0000 </r>
       <r>   31.4428    0.0000 </r>
       <r>   32.2622    0.0000 </r>
       <r>   32.5179    0.0000 </r>
       <r>   32.9812    0.0000 </r>
       <r>   36.1801    0.0000 </r>
       <r>   36.3643    0.0000 </r>
       <r>   36.8820    0.0000 </r>
       <r>   36.9883    0.0000 </r>
       <r>   37.0741    0.0000 </r>
       <r>   40.4088    0.0000 </r>
       <r>   40.7305    0.0000 </r>
       <r>   43.1521    0.0000 </r>
       <r>   44.7660    0.0000 </r>
       <r>   44.8653    0.0000 </r>
       <r>   48.2125    0.0000 </r>
       <r>   48.5444    0.0000 </r>
       <r>   50.1115    0.0000 </r>
       <r>   51.3759    0.0000 </r>
       <r>   51.8331    0.0000 </r>
       <r>   54.2519    0.0000 </r>
       <r>   54.6012    0.0000 </r>
       <r>   54.7598    0.0000 </r>
       <r>   56.0797    0.0000 </r>
       <r>   59.1756    0.0000 </r>
       <r>   59.3757    0.0000 </r>
       <r>   59.7976    0.0000 </r>
       <r>   62.7658    0.0000 </r>
       <r>   66.0970    0.0000 </r>
       <r>   67.2875    0.0000 </r>
       <r>   69.4257    0.0000 </r>
       <r>   72.5790    0.0000 </r>
       <r>   76.0522    0.0000 </r>
       <r>   84.2041    0.0000 </r>
      </set>
      <set comment="kpoint 12">
       <r>   -8.2909    1.0000 </r>
       <r>   -4.7337    1.0000 </r>
       <r>    2.0067    1.0000 </r>
       <r>    2.0298    1.0000 </r>
       <r>    4.4578   -0.0000 </r>
       <r>    7.9977    0.0000 </r>
       <r>    8.0120    0.0000 </r>
       <r>   11.5013    0.0000 </r>
       <r>   14.9658    0.0000 </r>
       <r>   15.4507    0.0000 </r>
       <r>   15.4871    0.0000 </r>
       <r>   16.5914    0.0000 </r>
       <r>   17.0023    0.0000 </r>
       <r>   17.0299    0.0000 </r>
       <r>   23.0798    0.0000 </r>
       <r>   25.3197    0.0000 </r>
       <r>   25.3986    0.0000 </r>
       <r>   25.4006    0.0000 </r>
       <r>   27.2191    0.0000 </r>
       <r>   27.2310    0.0000 </r>
       <r>   28.9965    0.0000 </r>
       <r>   31.3113    0.0000 </r>
       <r>   31.3120    0.0000 </r>
       <r>   31.4778    0.0000 </r>
       <r>   32.2428    0.0000 </r>
       <r>   32.5019    0.0000 </r>
       <r>   32.9447    0.0000 </r>
       <r>   36.1848    0.0000 </r>
       <r>   36.4082    0.0000 </r>
       <r>   36.9102    0.0000 </r>
       <r>   36.9479    0.0000 </r>
       <r>   37.0797    0.0000 </r>
       <r>   40.4149    0.0000 </r>
       <r>   40.8156    0.0000 </r>
       <r>   43.1588    0.0000 </r>
       <r>   44.7459    0.0000 </r>
       <r>   44.9177    0.0000 </r>
       <r>   47.9863    0.0000 </r>
       <r>   48.2697    0.0000 </r>
       <r>   50.1311    0.0000 </r>
       <r>   51.1810    0.0000 </r>
       <r>   51.5605    0.0000 </r>
       <r>   54.3520    0.0000 </r>
       <r>   54.4493    0.0000 </r>
       <r>   54.5565    0.0000 </r>
       <r>   56.0129    0.0000 </r>
       <r>   59.0055    0.0000 </r>
       <r>   59.3374    0.0000 </r>
       <r>   59.3779    0.0000 </r>
       <r>   62.5267    0.0000 </r>
       <r>   65.8426    0.0000 </r>
       <r>   67.1941    0.0000 </r>
       <r>   69.4951    0.0000 </r>
       <r>   72.6517    0.0000 </r>
       <r>   76.2701    0.0000 </r>
       <r>   84.1646    0.0000 </r>
      </set>
      <set comment="kpoint 13">
       <r>   -8.3270    1.0000 </r>
       <r>   -4.6764    1.0000 </r>
       <r>    2.0127    1.0000 </r>
       <r>    2.0311    1.0000 </r>
       <r>    4.4696   -0.0000 </r>
       <r>    8.0027    0.0000 </r>
       <r>    8.0152    0.0000 </r>
       <r>   11.5120    0.0000 </r>
       <r>   14.7731    0.0000 </r>
       <r>   15.2696    0.0000 </r>
       <r>   15.3073    0.0000 </r>
       <r>   16.7670    0.0000 </r>
       <r>   17.2120    0.0000 </r>
       <r>   17.2334    0.0000 </r>
       <r>   22.8152    0.0000 </r>
       <r>   25.1019    0.0000 </r>
       <r>   25.1053    0.0000 </r>
       <r>   25.6131    0.0000 </r>
       <r>   27.5259    0.0000 </r>
       <r>   27.5395    0.0000 </r>
       <r>   28.7199    0.0000 </r>
       <r>   31.3101    0.0000 </r>
       <r>   31.4693    0.0000 </r>
       <r>   31.5926    0.0000 </r>
       <r>   32.2180    0.0000 </r>
       <r>   32.4843    0.0000 </r>
       <r>   32.9123    0.0000 </r>
       <r>   36.1979    0.0000 </r>
       <r>   36.4603    0.0000 </r>
       <r>   36.9166    0.0000 </r>
       <r>   36.9761    0.0000 </r>
       <r>   37.0615    0.0000 </r>
       <r>   40.3458    0.0000 </r>
       <r>   41.1227    0.0000 </r>
       <r>   43.1149    0.0000 </r>
       <r>   44.7271    0.0000 </r>
       <r>   44.9712    0.0000 </r>
       <r>   47.7223    0.0000 </r>
       <r>   47.9555    0.0000 </r>
       <r>   50.2512    0.0000 </r>
       <r>   51.0242    0.0000 </r>
       <r>   51.2648    0.0000 </r>
       <r>   54.4225    0.0000 </r>
       <r>   54.5706    0.0000 </r>
       <r>   54.7180    0.0000 </r>
       <r>   56.0233    0.0000 </r>
       <r>   58.7839    0.0000 </r>
       <r>   59.1068    0.0000 </r>
       <r>   59.4732    0.0000 </r>
       <r>   62.2791    0.0000 </r>
       <r>   65.7506    0.0000 </r>
       <r>   67.0394    0.0000 </r>
       <r>   69.5670    0.0000 </r>
       <r>   72.6784    0.0000 </r>
       <r>   76.4009    0.0000 </r>
       <r>   84.0468    0.0000 </r>
      </set>
      <set comment="kpoint 14">
       <r>   -8.3716    1.0000 </r>
       <r>   -4.6044    1.0000 </r>
       <r>    2.0219    1.0000 </r>
       <r>    2.0404    1.0000 </r>
       <r>    4.4780   -0.0000 </r>
       <r>    8.0072    0.0000 </r>
       <r>    8.0191    0.0000 </r>
       <r>   11.5255    0.0000 </r>
       <r>   14.5699    0.0000 </r>
       <r>   15.0851    0.0000 </r>
       <r>   15.1235    0.0000 </r>
       <r>   16.9440    0.0000 </r>
       <r>   17.4322    0.0000 </r>
       <r>   17.4502    0.0000 </r>
       <r>   22.5495    0.0000 </r>
       <r>   24.8075    0.0000 </r>
       <r>   24.8113    0.0000 </r>
       <r>   25.9161    0.0000 </r>
       <r>   27.8329    0.0000 </r>
       <r>   27.8486    0.0000 </r>
       <r>   28.4372    0.0000 </r>
       <r>   31.3016    0.0000 </r>
       <r>   31.4584    0.0000 </r>
       <r>   31.9079    0.0000 </r>
       <r>   32.1767    0.0000 </r>
       <r>   32.4585    0.0000 </r>
       <r>   32.8723    0.0000 </r>
       <r>   36.2196    0.0000 </r>
       <r>   36.5182    0.0000 </r>
       <r>   36.9034    0.0000 </r>
       <r>   37.0349    0.0000 </r>
       <r>   37.0651    0.0000 </r>
       <r>   40.5235    0.0000 </r>
       <r>   41.3094    0.0000 </r>
       <r>   43.0441    0.0000 </r>
       <r>   44.7236    0.0000 </r>
       <r>   44.9908    0.0000 </r>
       <r>   47.3677    0.0000 </r>
       <r>   47.6250    0.0000 </r>
       <r>   50.2767    0.0000 </r>
       <r>   50.9616    0.0000 </r>
       <r>   51.1621    0.0000 </r>
       <r>   54.4443    0.0000 </r>
       <r>   54.4882    0.0000 </r>
       <r>   54.8742    0.0000 </r>
       <r>   55.9422    0.0000 </r>
       <r>   58.4208    0.0000 </r>
       <r>   58.9109    0.0000 </r>
       <r>   59.6566    0.0000 </r>
       <r>   62.0555    0.0000 </r>
       <r>   65.5832    0.0000 </r>
       <r>   67.0480    0.0000 </r>
       <r>   69.7859    0.0000 </r>
       <r>   72.7661    0.0000 </r>
       <r>   76.5340    0.0000 </r>
       <r>   83.9428    0.0000 </r>
      </set>
      <set comment="kpoint 15">
       <r>   -8.4238    1.0000 </r>
       <r>   -4.5189    1.0000 </r>
       <r>    2.0332    1.0000 </r>
       <r>    2.0517    1.0000 </r>
       <r>    4.4883   -0.0000 </r>
       <r>    8.0124    0.0000 </r>
       <r>    8.0238    0.0000 </r>
       <r>   11.5417    0.0000 </r>
       <r>   14.3601    0.0000 </r>
       <r>   14.9015    0.0000 </r>
       <r>   14.9395    0.0000 </r>
       <r>   17.1162    0.0000 </r>
       <r>   17.6601    0.0000 </r>
       <r>   17.6758    0.0000 </r>
       <r>   22.2907    0.0000 </r>
       <r>   24.5156    0.0000 </r>
       <r>   24.5197    0.0000 </r>
       <r>   26.2165    0.0000 </r>
       <r>   28.1376    0.0000 </r>
       <r>   28.1565    0.0000 </r>
       <r>   28.1632    0.0000 </r>
       <r>   31.2907    0.0000 </r>
       <r>   31.4424    0.0000 </r>
       <r>   32.1837    0.0000 </r>
       <r>   32.1837    0.0000 </r>
       <r>   32.4179    0.0000 </r>
       <r>   32.8187    0.0000 </r>
       <r>   36.2498    0.0000 </r>
       <r>   36.5828    0.0000 </r>
       <r>   36.9109    0.0000 </r>
       <r>   36.9788    0.0000 </r>
       <r>   37.1675    0.0000 </r>
       <r>   40.5232    0.0000 </r>
       <r>   41.3288    0.0000 </r>
       <r>   43.1092    0.0000 </r>
       <r>   44.7137    0.0000 </r>
       <r>   45.0422    0.0000 </r>
       <r>   47.0013    0.0000 </r>
       <r>   47.3217    0.0000 </r>
       <r>   50.2820    0.0000 </r>
       <r>   50.6248    0.0000 </r>
       <r>   51.4652    0.0000 </r>
       <r>   54.1525    0.0000 </r>
       <r>   54.2917    0.0000 </r>
       <r>   54.9472    0.0000 </r>
       <r>   55.5968    0.0000 </r>
       <r>   57.9559    0.0000 </r>
       <r>   58.6254    0.0000 </r>
       <r>   59.6124    0.0000 </r>
       <r>   61.8687    0.0000 </r>
       <r>   65.1703    0.0000 </r>
       <r>   67.0022    0.0000 </r>
       <r>   69.9771    0.0000 </r>
       <r>   72.8955    0.0000 </r>
       <r>   76.6692    0.0000 </r>
       <r>   83.8484    0.0000 </r>
      </set>
      <set comment="kpoint 16">
       <r>   -8.4824    1.0000 </r>
       <r>   -4.4208    1.0000 </r>
       <r>    2.0465    1.0000 </r>
       <r>    2.0650    1.0000 </r>
       <r>    4.5004   -0.0000 </r>
       <r>    8.0181    0.0000 </r>
       <r>    8.0292    0.0000 </r>
       <r>   11.5605    0.0000 </r>
       <r>   14.1468    0.0000 </r>
       <r>   14.7203    0.0000 </r>
       <r>   14.7572    0.0000 </r>
       <r>   17.2779    0.0000 </r>
       <r>   17.8942    0.0000 </r>
       <r>   17.9077    0.0000 </r>
       <r>   22.0447    0.0000 </r>
       <r>   24.2264    0.0000 </r>
       <r>   24.2308    0.0000 </r>
       <r>   26.4977    0.0000 </r>
       <r>   27.9103    0.0000 </r>
       <r>   28.4415    0.0000 </r>
       <r>   28.4631    0.0000 </r>
       <r>   31.2791    0.0000 </r>
       <r>   31.4285    0.0000 </r>
       <r>   32.1569    0.0000 </r>
       <r>   32.3829    0.0000 </r>
       <r>   32.4814    0.0000 </r>
       <r>   32.7715    0.0000 </r>
       <r>   36.2882    0.0000 </r>
       <r>   36.6535    0.0000 </r>
       <r>   36.9351    0.0000 </r>
       <r>   36.9487    0.0000 </r>
       <r>   37.2563    0.0000 </r>
       <r>   40.6683    0.0000 </r>
       <r>   41.3914    0.0000 </r>
       <r>   43.1070    0.0000 </r>
       <r>   44.6938    0.0000 </r>
       <r>   45.0667    0.0000 </r>
       <r>   46.6903    0.0000 </r>
       <r>   46.9848    0.0000 </r>
       <r>   50.2418    0.0000 </r>
       <r>   50.4019    0.0000 </r>
       <r>   52.0967    0.0000 </r>
       <r>   53.7516    0.0000 </r>
       <r>   54.0061    0.0000 </r>
       <r>   55.2721    0.0000 </r>
       <r>   55.4170    0.0000 </r>
       <r>   57.3825    0.0000 </r>
       <r>   58.2642    0.0000 </r>
       <r>   59.6376    0.0000 </r>
       <r>   61.6126    0.0000 </r>
       <r>   64.8419    0.0000 </r>
       <r>   66.9560    0.0000 </r>
       <r>   70.1166    0.0000 </r>
       <r>   72.9717    0.0000 </r>
       <r>   76.7817    0.0000 </r>
       <r>   83.7586    0.0000 </r>
      </set>
      <set comment="kpoint 17">
       <r>   -8.5463    1.0000 </r>
       <r>   -4.3114    1.0000 </r>
       <r>    2.0618    1.0000 </r>
       <r>    2.0804    1.0000 </r>
       <r>    4.5143   -0.0000 </r>
       <r>    8.0242    0.0000 </r>
       <r>    8.0349    0.0000 </r>
       <r>   11.5816    0.0000 </r>
       <r>   13.9319    0.0000 </r>
       <r>   14.5426    0.0000 </r>
       <r>   14.5781    0.0000 </r>
       <r>   17.4237    0.0000 </r>
       <r>   18.1334    0.0000 </r>
       <r>   18.1447    0.0000 </r>
       <r>   21.8174    0.0000 </r>
       <r>   23.9400    0.0000 </r>
       <r>   23.9447    0.0000 </r>
       <r>   26.7126    0.0000 </r>
       <r>   27.7284    0.0000 </r>
       <r>   28.7415    0.0000 </r>
       <r>   28.7676    0.0000 </r>
       <r>   31.2691    0.0000 </r>
       <r>   31.4166    0.0000 </r>
       <r>   32.1251    0.0000 </r>
       <r>   32.3788    0.0000 </r>
       <r>   32.7343    0.0000 </r>
       <r>   32.7365    0.0000 </r>
       <r>   36.3353    0.0000 </r>
       <r>   36.7297    0.0000 </r>
       <r>   36.9329    0.0000 </r>
       <r>   36.9765    0.0000 </r>
       <r>   37.3344    0.0000 </r>
       <r>   40.8416    0.0000 </r>
       <r>   41.4477    0.0000 </r>
       <r>   43.0995    0.0000 </r>
       <r>   44.6805    0.0000 </r>
       <r>   45.0687    0.0000 </r>
       <r>   46.4373    0.0000 </r>
       <r>   46.6927    0.0000 </r>
       <r>   50.0632    0.0000 </r>
       <r>   50.2845    0.0000 </r>
       <r>   53.0277    0.0000 </r>
       <r>   53.0796    0.0000 </r>
       <r>   53.8356    0.0000 </r>
       <r>   55.1734    0.0000 </r>
       <r>   55.8498    0.0000 </r>
       <r>   56.6839    0.0000 </r>
       <r>   58.0575    0.0000 </r>
       <r>   59.6996    0.0000 </r>
       <r>   61.4512    0.0000 </r>
       <r>   64.4967    0.0000 </r>
       <r>   66.8890    0.0000 </r>
       <r>   70.2227    0.0000 </r>
       <r>   73.0000    0.0000 </r>
       <r>   76.8523    0.0000 </r>
       <r>   83.6450    0.0000 </r>
      </set>
      <set comment="kpoint 18">
       <r>   -8.6147    1.0000 </r>
       <r>   -4.1916    1.0000 </r>
       <r>    2.0792    1.0000 </r>
       <r>    2.0978    1.0000 </r>
       <r>    4.5301   -0.0000 </r>
       <r>    8.0305    0.0000 </r>
       <r>    8.0409    0.0000 </r>
       <r>   11.6047    0.0000 </r>
       <r>   13.7167    0.0000 </r>
       <r>   14.3691    0.0000 </r>
       <r>   14.4028    0.0000 </r>
       <r>   17.5473    0.0000 </r>
       <r>   18.3769    0.0000 </r>
       <r>   18.3857    0.0000 </r>
       <r>   21.6153    0.0000 </r>
       <r>   23.6566    0.0000 </r>
       <r>   23.6615    0.0000 </r>
       <r>   26.7476    0.0000 </r>
       <r>   27.7307    0.0000 </r>
       <r>   29.0349    0.0000 </r>
       <r>   29.0674    0.0000 </r>
       <r>   31.2616    0.0000 </r>
       <r>   31.4067    0.0000 </r>
       <r>   32.0945    0.0000 </r>
       <r>   32.3553    0.0000 </r>
       <r>   32.7448    0.0000 </r>
       <r>   32.9451    0.0000 </r>
       <r>   36.3893    0.0000 </r>
       <r>   36.8107    0.0000 </r>
       <r>   36.9262    0.0000 </r>
       <r>   37.0363    0.0000 </r>
       <r>   37.4232    0.0000 </r>
       <r>   41.0466    0.0000 </r>
       <r>   41.5049    0.0000 </r>
       <r>   43.0842    0.0000 </r>
       <r>   44.6564    0.0000 </r>
       <r>   45.0123    0.0000 </r>
       <r>   46.2017    0.0000 </r>
       <r>   46.4149    0.0000 </r>
       <r>   49.8689    0.0000 </r>
       <r>   50.1812    0.0000 </r>
       <r>   52.4354    0.0000 </r>
       <r>   53.6305    0.0000 </r>
       <r>   53.8199    0.0000 </r>
       <r>   54.8219    0.0000 </r>
       <r>   56.0958    0.0000 </r>
       <r>   56.3064    0.0000 </r>
       <r>   57.9118    0.0000 </r>
       <r>   59.7173    0.0000 </r>
       <r>   61.2662    0.0000 </r>
       <r>   64.1393    0.0000 </r>
       <r>   66.8623    0.0000 </r>
       <r>   70.3493    0.0000 </r>
       <r>   73.0276    0.0000 </r>
       <r>   76.8966    0.0000 </r>
       <r>   83.5357    0.0000 </r>
      </set>
      <set comment="kpoint 19">
       <r>   -8.6865    1.0000 </r>
       <r>   -4.0623    1.0000 </r>
       <r>    2.0985    1.0000 </r>
       <r>    2.1172    1.0000 </r>
       <r>    4.5477   -0.0000 </r>
       <r>    8.0368    0.0000 </r>
       <r>    8.0470    0.0000 </r>
       <r>   11.6294    0.0000 </r>
       <r>   13.5024    0.0000 </r>
       <r>   14.2004    0.0000 </r>
       <r>   14.2321    0.0000 </r>
       <r>   17.6420    0.0000 </r>
       <r>   18.6241    0.0000 </r>
       <r>   18.6300    0.0000 </r>
       <r>   21.4456    0.0000 </r>
       <r>   23.3764    0.0000 </r>
       <r>   23.3815    0.0000 </r>
       <r>   26.5956    0.0000 </r>
       <r>   27.9242    0.0000 </r>
       <r>   29.3184    0.0000 </r>
       <r>   29.3588    0.0000 </r>
       <r>   31.2587    0.0000 </r>
       <r>   31.4029    0.0000 </r>
       <r>   32.0665    0.0000 </r>
       <r>   32.3294    0.0000 </r>
       <r>   32.8895    0.0000 </r>
       <r>   33.0014    0.0000 </r>
       <r>   36.4507    0.0000 </r>
       <r>   36.8964    0.0000 </r>
       <r>   36.9335    0.0000 </r>
       <r>   37.1151    0.0000 </r>
       <r>   37.5151    0.0000 </r>
       <r>   41.2626    0.0000 </r>
       <r>   41.5789    0.0000 </r>
       <r>   43.0889    0.0000 </r>
       <r>   44.6386    0.0000 </r>
       <r>   44.8826    0.0000 </r>
       <r>   46.0361    0.0000 </r>
       <r>   46.1565    0.0000 </r>
       <r>   49.6246    0.0000 </r>
       <r>   50.1705    0.0000 </r>
       <r>   52.0135    0.0000 </r>
       <r>   53.4472    0.0000 </r>
       <r>   54.4529    0.0000 </r>
       <r>   54.5547    0.0000 </r>
       <r>   55.4955    0.0000 </r>
       <r>   56.8432    0.0000 </r>
       <r>   57.7800    0.0000 </r>
       <r>   59.7173    0.0000 </r>
       <r>   61.0555    0.0000 </r>
       <r>   63.7738    0.0000 </r>
       <r>   66.8175    0.0000 </r>
       <r>   70.4649    0.0000 </r>
       <r>   73.0365    0.0000 </r>
       <r>   76.9293    0.0000 </r>
       <r>   83.4252    0.0000 </r>
      </set>
      <set comment="kpoint 20">
       <r>   -8.7609    1.0000 </r>
       <r>   -3.9245    1.0000 </r>
       <r>    2.1198    1.0000 </r>
       <r>    2.1385    1.0000 </r>
       <r>    4.5671   -0.0000 </r>
       <r>    8.0429    0.0000 </r>
       <r>    8.0527    0.0000 </r>
       <r>   11.6548    0.0000 </r>
       <r>   13.2902    0.0000 </r>
       <r>   14.0370    0.0000 </r>
       <r>   14.0666    0.0000 </r>
       <r>   17.7006    0.0000 </r>
       <r>   18.8745    0.0000 </r>
       <r>   18.8770    0.0000 </r>
       <r>   21.3156    0.0000 </r>
       <r>   23.0997    0.0000 </r>
       <r>   23.1049    0.0000 </r>
       <r>   26.3596    0.0000 </r>
       <r>   28.2058    0.0000 </r>
       <r>   29.5864    0.0000 </r>
       <r>   29.6354    0.0000 </r>
       <r>   31.2631    0.0000 </r>
       <r>   31.4078    0.0000 </r>
       <r>   32.0444    0.0000 </r>
       <r>   32.3052    0.0000 </r>
       <r>   32.9095    0.0000 </r>
       <r>   33.1517    0.0000 </r>
       <r>   36.5188    0.0000 </r>
       <r>   36.9589    0.0000 </r>
       <r>   36.9858    0.0000 </r>
       <r>   37.2015    0.0000 </r>
       <r>   37.6035    0.0000 </r>
       <r>   41.3555    0.0000 </r>
       <r>   41.6004    0.0000 </r>
       <r>   43.1648    0.0000 </r>
       <r>   44.5954    0.0000 </r>
       <r>   44.6781    0.0000 </r>
       <r>   45.8819    0.0000 </r>
       <r>   45.9173    0.0000 </r>
       <r>   49.3291    0.0000 </r>
       <r>   50.0464    0.0000 </r>
       <r>   51.5778    0.0000 </r>
       <r>   53.1604    0.0000 </r>
       <r>   54.3307    0.0000 </r>
       <r>   54.6526    0.0000 </r>
       <r>   55.2011    0.0000 </r>
       <r>   57.0458    0.0000 </r>
       <r>   57.8468    0.0000 </r>
       <r>   59.6435    0.0000 </r>
       <r>   60.7197    0.0000 </r>
       <r>   63.3861    0.0000 </r>
       <r>   66.8242    0.0000 </r>
       <r>   70.6863    0.0000 </r>
       <r>   73.0695    0.0000 </r>
       <r>   76.9762    0.0000 </r>
       <r>   83.3551    0.0000 </r>
      </set>
      <set comment="kpoint 21">
       <r>   -8.8372    1.0000 </r>
       <r>   -3.7788    1.0000 </r>
       <r>    2.1430    1.0000 </r>
       <r>    2.1618    1.0000 </r>
       <r>    4.5883   -0.0000 </r>
       <r>    8.0484    0.0000 </r>
       <r>    8.0580    0.0000 </r>
       <r>   11.6796    0.0000 </r>
       <r>   13.0817    0.0000 </r>
       <r>   13.8793    0.0000 </r>
       <r>   13.9067    0.0000 </r>
       <r>   17.7170    0.0000 </r>
       <r>   19.1258    0.0000 </r>
       <r>   19.1269    0.0000 </r>
       <r>   21.2318    0.0000 </r>
       <r>   22.8269    0.0000 </r>
       <r>   22.8323    0.0000 </r>
       <r>   26.0928    0.0000 </r>
       <r>   28.5231    0.0000 </r>
       <r>   29.8297    0.0000 </r>
       <r>   29.8892    0.0000 </r>
       <r>   31.2776    0.0000 </r>
       <r>   31.4307    0.0000 </r>
       <r>   32.0346    0.0000 </r>
       <r>   32.2896    0.0000 </r>
       <r>   32.8132    0.0000 </r>
       <r>   33.3948    0.0000 </r>
       <r>   36.5936    0.0000 </r>
       <r>   37.0145    0.0000 </r>
       <r>   37.0797    0.0000 </r>
       <r>   37.3094    0.0000 </r>
       <r>   37.7041    0.0000 </r>
       <r>   41.5831    0.0000 </r>
       <r>   41.7044    0.0000 </r>
       <r>   43.1936    0.0000 </r>
       <r>   44.4404    0.0000 </r>
       <r>   44.4988    0.0000 </r>
       <r>   45.7152    0.0000 </r>
       <r>   45.7912    0.0000 </r>
       <r>   49.0267    0.0000 </r>
       <r>   50.0019    0.0000 </r>
       <r>   51.4262    0.0000 </r>
       <r>   52.9767    0.0000 </r>
       <r>   54.2527    0.0000 </r>
       <r>   54.6943    0.0000 </r>
       <r>   55.3894    0.0000 </r>
       <r>   56.9361    0.0000 </r>
       <r>   58.0841    0.0000 </r>
       <r>   59.5250    0.0000 </r>
       <r>   60.2305    0.0000 </r>
       <r>   63.0405    0.0000 </r>
       <r>   66.7942    0.0000 </r>
       <r>   70.7962    0.0000 </r>
       <r>   73.0291    0.0000 </r>
       <r>   76.9471    0.0000 </r>
       <r>   83.2305    0.0000 </r>
      </set>
      <set comment="kpoint 22">
       <r>   -8.9148    1.0000 </r>
       <r>   -3.6259    1.0000 </r>
       <r>    2.1682    1.0000 </r>
       <r>    2.1871    1.0000 </r>
       <r>    4.6112   -0.0000 </r>
       <r>    8.0530    0.0000 </r>
       <r>    8.0624    0.0000 </r>
       <r>   11.7017    0.0000 </r>
       <r>   12.8794    0.0000 </r>
       <r>   13.7277    0.0000 </r>
       <r>   13.7530    0.0000 </r>
       <r>   17.6876    0.0000 </r>
       <r>   19.3756    0.0000 </r>
       <r>   19.3804    0.0000 </r>
       <r>   21.1987    0.0000 </r>
       <r>   22.5586    0.0000 </r>
       <r>   22.5640    0.0000 </r>
       <r>   25.8142    0.0000 </r>
       <r>   28.8562    0.0000 </r>
       <r>   30.0310    0.0000 </r>
       <r>   30.1132    0.0000 </r>
       <r>   31.3048    0.0000 </r>
       <r>   31.4741    0.0000 </r>
       <r>   32.0480    0.0000 </r>
       <r>   32.2826    0.0000 </r>
       <r>   32.7360    0.0000 </r>
       <r>   33.5866    0.0000 </r>
       <r>   36.6745    0.0000 </r>
       <r>   37.1019    0.0000 </r>
       <r>   37.1789    0.0000 </r>
       <r>   37.4275    0.0000 </r>
       <r>   37.8068    0.0000 </r>
       <r>   41.7653    0.0000 </r>
       <r>   41.8027    0.0000 </r>
       <r>   43.3150    0.0000 </r>
       <r>   44.2411    0.0000 </r>
       <r>   44.2551    0.0000 </r>
       <r>   45.5522    0.0000 </r>
       <r>   45.7834    0.0000 </r>
       <r>   48.7220    0.0000 </r>
       <r>   49.9970    0.0000 </r>
       <r>   51.2833    0.0000 </r>
       <r>   52.7644    0.0000 </r>
       <r>   54.2350    0.0000 </r>
       <r>   54.5883    0.0000 </r>
       <r>   55.7300    0.0000 </r>
       <r>   56.4725    0.0000 </r>
       <r>   58.5937    0.0000 </r>
       <r>   59.3529    0.0000 </r>
       <r>   59.6823    0.0000 </r>
       <r>   62.7995    0.0000 </r>
       <r>   66.7787    0.0000 </r>
       <r>   70.8733    0.0000 </r>
       <r>   72.9970    0.0000 </r>
       <r>   76.9310    0.0000 </r>
       <r>   83.1352    0.0000 </r>
      </set>
      <set comment="kpoint 23">
       <r>   -8.9931    1.0000 </r>
       <r>   -3.4665    1.0000 </r>
       <r>    2.1953    1.0000 </r>
       <r>    2.2142    1.0000 </r>
       <r>    4.6359   -0.0000 </r>
       <r>    8.0565    0.0000 </r>
       <r>    8.0657    0.0000 </r>
       <r>   11.7164    0.0000 </r>
       <r>   12.6878    0.0000 </r>
       <r>   13.5827    0.0000 </r>
       <r>   13.6059    0.0000 </r>
       <r>   17.6128    0.0000 </r>
       <r>   19.6250    0.0000 </r>
       <r>   19.6334    0.0000 </r>
       <r>   21.2169    0.0000 </r>
       <r>   22.2960    0.0000 </r>
       <r>   22.3013    0.0000 </r>
       <r>   25.5314    0.0000 </r>
       <r>   29.1985    0.0000 </r>
       <r>   30.2016    0.0000 </r>
       <r>   30.2780    0.0000 </r>
       <r>   31.3445    0.0000 </r>
       <r>   31.5372    0.0000 </r>
       <r>   32.0973    0.0000 </r>
       <r>   32.2912    0.0000 </r>
       <r>   32.6732    0.0000 </r>
       <r>   33.7288    0.0000 </r>
       <r>   36.7609    0.0000 </r>
       <r>   37.2220    0.0000 </r>
       <r>   37.2849    0.0000 </r>
       <r>   37.5570    0.0000 </r>
       <r>   37.9101    0.0000 </r>
       <r>   41.8522    0.0000 </r>
       <r>   41.8638    0.0000 </r>
       <r>   43.5235    0.0000 </r>
       <r>   43.8710    0.0000 </r>
       <r>   44.0525    0.0000 </r>
       <r>   45.4380    0.0000 </r>
       <r>   45.8370    0.0000 </r>
       <r>   48.4260    0.0000 </r>
       <r>   49.9136    0.0000 </r>
       <r>   50.9456    0.0000 </r>
       <r>   52.5290    0.0000 </r>
       <r>   54.0742    0.0000 </r>
       <r>   54.3614    0.0000 </r>
       <r>   55.8710    0.0000 </r>
       <r>   56.4228    0.0000 </r>
       <r>   58.8804    0.0000 </r>
       <r>   59.0775    0.0000 </r>
       <r>   59.1780    0.0000 </r>
       <r>   62.5683    0.0000 </r>
       <r>   66.9237    0.0000 </r>
       <r>   71.1230    0.0000 </r>
       <r>   73.0331    0.0000 </r>
       <r>   76.9965    0.0000 </r>
       <r>   83.1139    0.0000 </r>
      </set>
      <set comment="kpoint 24">
       <r>   -9.0716    1.0000 </r>
       <r>   -3.3009    1.0000 </r>
       <r>    2.2243    1.0000 </r>
       <r>    2.2433    1.0000 </r>
       <r>    4.6623   -0.0000 </r>
       <r>    8.0584    0.0000 </r>
       <r>    8.0674    0.0000 </r>
       <r>   11.7149    0.0000 </r>
       <r>   12.5159    0.0000 </r>
       <r>   13.4447    0.0000 </r>
       <r>   13.4659    0.0000 </r>
       <r>   17.4965    0.0000 </r>
       <r>   19.8716    0.0000 </r>
       <r>   19.8832    0.0000 </r>
       <r>   21.2845    0.0000 </r>
       <r>   22.0400    0.0000 </r>
       <r>   22.0455    0.0000 </r>
       <r>   25.2479    0.0000 </r>
       <r>   29.5464    0.0000 </r>
       <r>   30.3229    0.0000 </r>
       <r>   30.3921    0.0000 </r>
       <r>   31.3905    0.0000 </r>
       <r>   31.5990    0.0000 </r>
       <r>   32.2040    0.0000 </r>
       <r>   32.3243    0.0000 </r>
       <r>   32.6280    0.0000 </r>
       <r>   33.8247    0.0000 </r>
       <r>   36.8529    0.0000 </r>
       <r>   37.3682    0.0000 </r>
       <r>   37.3905    0.0000 </r>
       <r>   37.6847    0.0000 </r>
       <r>   38.0148    0.0000 </r>
       <r>   41.8006    0.0000 </r>
       <r>   41.9528    0.0000 </r>
       <r>   43.4811    0.0000 </r>
       <r>   43.6667    0.0000 </r>
       <r>   43.8522    0.0000 </r>
       <r>   45.3382    0.0000 </r>
       <r>   45.9394    0.0000 </r>
       <r>   48.0987    0.0000 </r>
       <r>   49.9066    0.0000 </r>
       <r>   50.8446    0.0000 </r>
       <r>   52.2695    0.0000 </r>
       <r>   53.9889    0.0000 </r>
       <r>   54.0737    0.0000 </r>
       <r>   55.3835    0.0000 </r>
       <r>   56.8537    0.0000 </r>
       <r>   58.4482    0.0000 </r>
       <r>   58.8567    0.0000 </r>
       <r>   59.2761    0.0000 </r>
       <r>   62.4562    0.0000 </r>
       <r>   66.8831    0.0000 </r>
       <r>   71.2719    0.0000 </r>
       <r>   72.9411    0.0000 </r>
       <r>   76.9550    0.0000 </r>
       <r>   83.0276    0.0000 </r>
      </set>
      <set comment="kpoint 25">
       <r>   -9.1499    1.0000 </r>
[...]
       <r>    4.8681    0.0000 </r>
       <r>   14.4885    0.0000 </r>
       <r>   14.5049    0.0000 </r>
       <r>   16.4001    0.0000 </r>
       <r>   16.9013    0.0000 </r>
       <r>   17.1181    0.0000 </r>
       <r>   17.1445    0.0000 </r>
       <r>   17.8180    0.0000 </r>
       <r>   18.0243    0.0000 </r>
       <r>   23.3448    0.0000 </r>
       <r>   23.3512    0.0000 </r>
       <r>   23.3993    0.0000 </r>
       <r>   23.9943    0.0000 </r>
       <r>   24.0951    0.0000 </r>
       <r>   24.3655    0.0000 </r>
       <r>   25.1678    0.0000 </r>
       <r>   25.3744    0.0000 </r>
       <r>   31.7590    0.0000 </r>
       <r>   32.1494    0.0000 </r>
       <r>   33.9183    0.0000 </r>
       <r>   34.2908    0.0000 </r>
       <r>   36.8969    0.0000 </r>
       <r>   37.5853    0.0000 </r>
       <r>   37.8733    0.0000 </r>
       <r>   39.7628    0.0000 </r>
       <r>   40.1096    0.0000 </r>
       <r>   42.7748    0.0000 </r>
       <r>   43.6056    0.0000 </r>
       <r>   46.1268    0.0000 </r>
       <r>   47.1953    0.0000 </r>
       <r>   47.3873    0.0000 </r>
       <r>   47.6273    0.0000 </r>
       <r>   47.8280    0.0000 </r>
       <r>   48.2271    0.0000 </r>
       <r>   49.6630    0.0000 </r>
       <r>   53.1606    0.0000 </r>
       <r>   54.6117    0.0000 </r>
       <r>   56.3528    0.0000 </r>
       <r>   57.2429    0.0000 </r>
       <r>   57.6973    0.0000 </r>
       <r>   63.6133    0.0000 </r>
       <r>   63.6464    0.0000 </r>
       <r>   65.4743    0.0000 </r>
       <r>   66.1294    0.0000 </r>
       <r>   67.5737    0.0000 </r>
       <r>   71.9257    0.0000 </r>
       <r>   72.2495    0.0000 </r>
       <r>   74.6992    0.0000 </r>
       <r>   74.9368    0.0000 </r>
       <r>   86.2991    0.0000 </r>
       <r>   87.5988    0.0000 </r>
      </set>
      <set comment="kpoint 108">
       <r>   -6.2077    1.0000 </r>
       <r>   -6.2076    1.0000 </r>
       <r>    0.1394    1.0000 </r>
       <r>    0.1400    1.0000 </r>
       <r>    4.8216    0.0000 </r>
       <r>    4.8217    0.0000 </r>
       <r>   14.5107    0.0000 </r>
       <r>   14.5433    0.0000 </r>
       <r>   16.5849    0.0000 </r>
       <r>   16.7824    0.0000 </r>
       <r>   17.0537    0.0000 </r>
       <r>   17.0754    0.0000 </r>
       <r>   17.8380    0.0000 </r>
       <r>   18.0117    0.0000 </r>
       <r>   23.6541    0.0000 </r>
       <r>   23.6660    0.0000 </r>
       <r>   23.7217    0.0000 </r>
       <r>   23.7593    0.0000 </r>
       <r>   24.0483    0.0000 </r>
       <r>   24.3114    0.0000 </r>
       <r>   24.7058    0.0000 </r>
       <r>   24.9707    0.0000 </r>
       <r>   31.8965    0.0000 </r>
       <r>   32.0936    0.0000 </r>
       <r>   33.9879    0.0000 </r>
       <r>   34.3965    0.0000 </r>
       <r>   37.3148    0.0000 </r>
       <r>   37.6371    0.0000 </r>
       <r>   37.7119    0.0000 </r>
       <r>   39.8754    0.0000 </r>
       <r>   40.1183    0.0000 </r>
       <r>   42.7590    0.0000 </r>
       <r>   43.6123    0.0000 </r>
       <r>   46.3120    0.0000 </r>
       <r>   47.0886    0.0000 </r>
       <r>   47.5322    0.0000 </r>
       <r>   47.7076    0.0000 </r>
       <r>   48.0923    0.0000 </r>
       <r>   48.2553    0.0000 </r>
       <r>   48.6929    0.0000 </r>
       <r>   53.3718    0.0000 </r>
       <r>   54.6154    0.0000 </r>
       <r>   56.7922    0.0000 </r>
       <r>   57.5888    0.0000 </r>
       <r>   58.0979    0.0000 </r>
       <r>   63.0321    0.0000 </r>
       <r>   63.5912    0.0000 </r>
       <r>   65.5711    0.0000 </r>
       <r>   66.1598    0.0000 </r>
       <r>   66.9454    0.0000 </r>
       <r>   71.5706    0.0000 </r>
       <r>   72.1581    0.0000 </r>
       <r>   76.3027    0.0000 </r>
       <r>   76.3174    0.0000 </r>
       <r>   86.0189    0.0000 </r>
       <r>   87.3641    0.0000 </r>
      </set>
     </set>
    </set>
   </array>
  </eigenvalues>
  <separator name="orbital magnetization" >
   <v name="MAGDIPOLOUT">      0.00000000      0.00000000      0.00000000</v>
  </separator>
  <dos>
   <i name="efermi">      3.79049132 </i>
   <total>
    <array>
     <dimension dim="1">gridpoints</dimension>
     <dimension dim="2">spin</dimension>
     <field>energy</field>
     <field>total</field>
     <field>integrated</field>
     <set>
      <set comment="spin 1">
       <r>   -15.5562     0.0000     0.0000 </r>
       <r>   -15.1929     0.0000     0.0000 </r>
       <r>   -14.8296     0.0000     0.0000 </r>
       <r>   -14.4662     0.0000     0.0000 </r>
       <r>   -14.1029     0.0000     0.0000 </r>
       <r>   -13.7396     0.0000     0.0000 </r>
       <r>   -13.3763     0.0000     0.0000 </r>
       <r>   -13.0130     0.0000     0.0000 </r>
       <r>   -12.6497     0.0000     0.0000 </r>
       <r>   -12.2863     0.0000     0.0000 </r>
       <r>   -11.9230     0.0000     0.0000 </r>
       <r>   -11.5597     0.0000     0.0000 </r>
       <r>   -11.1964    -0.0000    -0.0000 </r>
       <r>   -10.8331    -0.0000    -0.0000 </r>
       <r>   -10.4697     0.0861     0.0313 </r>
       <r>   -10.1064    -0.0000     0.0312 </r>
       <r>    -9.7431     0.6088     0.2524 </r>
       <r>    -9.3798     0.6035     0.4717 </r>
       <r>    -9.0165    -0.0000     0.4688 </r>
       <r>    -8.6532    -0.0000     0.4687 </r>
       <r>    -8.2898     1.0264     0.8417 </r>
       <r>    -7.9265     0.3495     0.9686 </r>
       <r>    -7.5632     2.0647     1.7188 </r>
       <r>    -7.1999     0.0000     1.7188 </r>
       <r>    -6.8366    -0.0000     1.7188 </r>
       <r>    -6.4732    -0.0000     1.7187 </r>
       <r>    -6.1099     0.7657     1.9970 </r>
       <r>    -5.7466     0.7867     2.2812 </r>
       <r>    -5.3833    -0.0000     2.2812 </r>
       <r>    -5.0200    -0.0000     2.2812 </r>
       <r>    -4.6567     0.3438     2.4061 </r>
       <r>    -4.2933     2.0646     3.1563 </r>
       <r>    -3.9300    -0.0000     3.1562 </r>
       <r>    -3.5667     0.0199     3.1635 </r>
       <r>    -3.2034     1.0123     3.5312 </r>
       <r>    -2.8401     0.0000     3.5312 </r>
       <r>    -2.4767     0.0000     3.5312 </r>
       <r>    -2.1134    -0.0000     3.5312 </r>
       <r>    -1.7501    -0.0000     3.5312 </r>
       <r>    -1.3868     1.1401     3.9455 </r>
       <r>    -1.0235     0.0674     3.9687 </r>
       <r>    -0.6602     1.9824     4.6890 </r>
       <r>    -0.2968     2.1561     5.4688 </r>
       <r>     0.0665    -0.0178     5.4623 </r>
       <r>     0.4298     0.5339     5.6562 </r>
       <r>     0.7931    -0.0229     5.6479 </r>
       <r>     1.1564     2.0871     6.4062 </r>
       <r>     1.5198     1.0323     6.7813 </r>
       <r>     1.8831     0.3806     6.9195 </r>
       <r>     2.2464     1.3397     7.4063 </r>
       <r>     2.6097     1.2576     7.8632 </r>
       <r>     2.9730     0.1186     7.9062 </r>
       <r>     3.3363    -0.0000     7.9062 </r>
       <r>     3.6997     0.2580     8.0000 </r>
       <r>     4.0630    -0.0000     8.0000 </r>
       <r>     4.4263    -0.0068     7.9975 </r>
       <r>     4.7896     0.4432     8.1586 </r>
       <r>     5.1529     1.6797     8.7688 </r>
       <r>     5.5163    -0.0312     8.7574 </r>
       <r>     5.8796     2.1299     9.5312 </r>
       <r>     6.2429     0.1688     9.5926 </r>
       <r>     6.6062     0.8634     9.9062 </r>
       <r>     6.9695     0.2564     9.9994 </r>
       <r>     7.3328     0.5177    10.1875 </r>
       <r>     7.6962    -0.0000    10.1875 </r>
       <r>     8.0595     2.0896    10.9467 </r>
       <r>     8.4228    -0.0000    10.9375 </r>
       <r>     8.7861     2.0424    11.6795 </r>
       <r>     9.1494     2.0582    12.4254 </r>
       <r>     9.5128     1.6210    13.0143 </r>
       <r>     9.8761     3.6579    14.3433 </r>
       <r>    10.2394     0.4059    14.4600 </r>
       <r>    10.6027     1.2557    14.9162 </r>
       <r>    10.9660     2.2097    15.7190 </r>
       <r>    11.3293    -0.0000    15.7187 </r>
       <r>    11.6927     0.8762    16.0371 </r>
       <r>    12.0560     1.0322    16.4063 </r>
       <r>    12.4193     0.0284    16.4166 </r>
       <r>    12.7826     2.0359    17.1563 </r>
       <r>    13.1459    -0.0000    17.1562 </r>
       <r>    13.5093    -0.0000    17.1562 </r>
       <r>    13.8726     0.1720    17.2188 </r>
       <r>    14.2359     1.0326    17.5939 </r>
       <r>    14.5992     0.4459    17.7558 </r>
       <r>    14.9625     3.1666    18.9063 </r>
       <r>    15.3258     0.6129    19.1289 </r>
       <r>    15.6892     0.6645    19.3664 </r>
       <r>    16.0525     3.8082    20.7500 </r>
       <r>    16.4158     0.3431    20.8747 </r>
       <r>    16.7791     4.3041    22.4384 </r>
       <r>    17.1424     3.3163    23.6424 </r>
       <r>    17.5058     1.3486    24.1247 </r>
       <r>    17.8691     3.1065    25.2524 </r>
       <r>    18.2324     1.0312    25.6246 </r>
       <r>    18.5957     1.1192    26.0313 </r>
       <r>    18.9590    -0.0000    26.0312 </r>
       <r>    19.3223    -0.0001    26.0312 </r>
       <r>    19.6857     1.3763    26.5313 </r>
       <r>    20.0490     0.0000    26.5312 </r>
       <r>    20.4123    -0.0000    26.5312 </r>
       <r>    20.7756    -0.0007    26.5310 </r>
       <r>    21.1389     2.0650    27.2813 </r>
       <r>    21.5023     2.0645    28.0313 </r>
       <r>    21.8656     0.7957    28.3203 </r>
       <r>    22.2289     0.4846    28.4964 </r>
       <r>    22.5922     3.5678    29.7926 </r>
       <r>    22.9555     2.3770    30.6562 </r>
       <r>    23.3188     0.9979    31.0188 </r>
       <r>    23.6822     5.5359    33.0407 </r>
       <r>    24.0455     0.8560    33.3303 </r>
       <r>    24.4088     4.3432    34.9083 </r>
       <r>    24.7721     4.0719    36.3877 </r>
       <r>    25.1354     0.0419    36.4029 </r>
       <r>    25.4988     1.5546    36.9677 </r>
       <r>    25.8621     1.0663    37.3438 </r>
       <r>    26.2254     0.9087    37.6739 </r>
       <r>    26.5887     3.6331    38.9939 </r>
       <r>    26.9520     0.0000    38.9688 </r>
       <r>    27.3153    -0.0000    38.9688 </r>
       <r>    27.6787    -0.0184    38.9621 </r>
       <r>    28.0420     2.1148    39.7304 </r>
       <r>    28.4053    -0.0002    39.7187 </r>
       <r>    28.7686     3.0967    40.8438 </r>
       <r>    29.1319     2.3129    41.6841 </r>
       <r>    29.4953     0.1151    41.6993 </r>
       <r>    29.8586     3.4584    42.9558 </r>
       <r>    30.2219     0.9173    43.2708 </r>
       <r>    30.5852     3.4207    44.5105 </r>
       <r>    30.9485     2.4655    45.4063 </r>
       <r>    31.3118     3.6567    46.7348 </r>
       <r>    31.6752     2.1529    47.5092 </r>
       <r>    32.0385     2.1327    48.2809 </r>
       <r>    32.4018     0.9265    48.6175 </r>
       <r>    32.7651     4.1205    50.1136 </r>
       <r>    33.1284     6.3274    52.4125 </r>
       <r>    33.4918    -0.0053    52.3731 </r>
       <r>    33.8551     1.7459    53.0074 </r>
       <r>    34.2184     2.3442    53.8517 </r>
       <r>    34.5817     2.3011    54.6877 </r>
       <r>    34.9450     0.5036    54.8705 </r>
       <r>    35.3083     0.8726    55.1875 </r>
       <r>    35.6717     2.0713    55.9400 </r>
       <r>    36.0350    -0.0075    55.9348 </r>
       <r>    36.3983     1.3847    56.4379 </r>
       <r>    36.7616    -0.0032    56.4363 </r>
       <r>    37.1249     0.5179    56.6245 </r>
       <r>    37.4883     2.7167    57.6115 </r>
       <r>    37.8516     2.5872    58.5515 </r>
       <r>    38.2149     2.9426    59.6164 </r>
       <r>    38.5782     2.7777    60.6252 </r>
       <r>    38.9415     1.4601    61.1554 </r>
       <r>    39.3048     3.7430    62.5153 </r>
       <r>    39.6682     2.6024    63.4591 </r>
       <r>    40.0315     2.2338    64.2687 </r>
       <r>    40.3948     3.9192    65.6923 </r>
       <r>    40.7581     6.2445    67.9498 </r>
       <r>    41.1214     4.6406    69.6249 </r>
       <r>    41.4848     2.2372    70.4375 </r>
       <r>    41.8481    -0.0000    70.4375 </r>
       <r>    42.2114    -0.0000    70.4375 </r>
       <r>    42.5747     1.0322    70.8125 </r>
       <r>    42.9380     0.6794    71.0594 </r>
       <r>    43.3013     1.5481    71.6250 </r>
       <r>    43.6647     1.2822    72.0908 </r>
       <r>    44.0280     4.9197    73.8782 </r>
       <r>    44.3913    -0.0000    73.8750 </r>
       <r>    44.7546     0.6690    74.1180 </r>
       <r>    45.1179     0.9866    74.4834 </r>
       <r>    45.4813     1.2783    74.9464 </r>
       <r>    45.8446     3.3155    76.1530 </r>
       <r>    46.2079     6.0636    78.3558 </r>
       <r>    46.5712     1.8015    79.0076 </r>
       <r>    46.9345     0.1322    79.0557 </r>
       <r>    47.2978     7.3300    81.7188 </r>
       <r>    47.6612     1.3356    82.2040 </r>
       <r>    48.0245     1.2692    82.6486 </r>
       <r>    48.3878     3.5497    83.9383 </r>
       <r>    48.7511     2.4186    84.8159 </r>
       <r>    49.1144    -0.0000    84.8125 </r>
       <r>    49.4778     2.4757    85.7119 </r>
       <r>    49.8411     0.3833    85.8423 </r>
       <r>    50.2044     4.4952    87.4755 </r>
       <r>    50.5677     0.4733    87.6095 </r>
       <r>    50.9310     5.4386    89.5848 </r>
       <r>    51.2943     3.0245    90.6590 </r>
       <r>    51.6577     2.4426    91.5437 </r>
       <r>    52.0210     2.6427    92.4913 </r>
       <r>    52.3843     2.5520    93.4063 </r>
       <r>    52.7476     4.1287    94.9063 </r>
       <r>    53.1109     0.3139    95.0203 </r>
       <r>    53.4743     4.7670    96.7499 </r>
       <r>    53.8376     2.5716    97.6842 </r>
       <r>    54.2009     0.6990    97.9375 </r>
       <r>    54.5642    -0.0187    97.9307 </r>
       <r>    54.9275     1.7361    98.5615 </r>
       <r>    55.2908     2.0639    99.3113 </r>
       <r>    55.6542     1.7236    99.9375 </r>
       <r>    56.0175     2.1137   100.7055 </r>
       <r>    56.3808     0.8107   101.0000 </r>
       <r>    56.7441    -0.0715   100.9740 </r>
       <r>    57.1074     6.3312   103.2743 </r>
       <r>    57.4708     2.1517   104.0560 </r>
       <r>    57.8341     2.9031   105.1108 </r>
       <r>    58.1974     4.9827   106.9292 </r>
       <r>    58.5607     1.8150   107.5886 </r>
       <r>    58.9240     2.8527   108.6250 </r>
       <r>    59.2873     0.3903   108.7668 </r>
       <r>    59.6507     2.8664   109.8082 </r>
       <r>    60.0140     2.4147   110.6855 </r>
       <r>    60.3773     1.0382   111.0625 </r>
       <r>    60.7406    -0.0000   111.0625 </r>
       <r>    61.1039     0.3999   111.2078 </r>
       <r>    61.4673     0.0743   111.2348 </r>
       <r>    61.8306     2.1062   112.0000 </r>
       <r>    62.1939     0.0000   112.0000 </r>
       <r>    62.5572     0.0000   112.0000 </r>
       <r>    62.9205     0.0000   112.0000 </r>
       <r>    63.2838     0.0000   112.0000 </r>
       <r>    63.6472     0.0000   112.0000 </r>
       <r>    64.0105     0.0000   112.0000 </r>
       <r>    64.3738     0.0000   112.0000 </r>
       <r>    64.7371     0.0000   112.0000 </r>
       <r>    65.1004     0.0000   112.0000 </r>
       <r>    65.4638     0.0000   112.0000 </r>
       <r>    65.8271     0.0000   112.0000 </r>
       <r>    66.1904     0.0000   112.0000 </r>
       <r>    66.5537     0.0000   112.0000 </r>
       <r>    66.9170     0.0000   112.0000 </r>
       <r>    67.2803     0.0000   112.0000 </r>
       <r>    67.6437     0.0000   112.0000 </r>
       <r>    68.0070     0.0000   112.0000 </r>
       <r>    68.3703     0.0000   112.0000 </r>
       <r>    68.7336     0.0000   112.0000 </r>
       <r>    69.0969     0.0000   112.0000 </r>
       <r>    69.4603     0.0000   112.0000 </r>
       <r>    69.8236     0.0000   112.0000 </r>
       <r>    70.1869     0.0000   112.0000 </r>
       <r>    70.5502     0.0000   112.0000 </r>
       <r>    70.9135     0.0000   112.0000 </r>
       <r>    71.2768     0.0000   112.0000 </r>
       <r>    71.6402     0.0000   112.0000 </r>
       <r>    72.0035     0.0000   112.0000 </r>
       <r>    72.3668     0.0000   112.0000 </r>
       <r>    72.7301     0.0000   112.0000 </r>
       <r>    73.0934     0.0000   112.0000 </r>
       <r>    73.4568     0.0000   112.0000 </r>
       <r>    73.8201     0.0000   112.0000 </r>
       <r>    74.1834     0.0000   112.0000 </r>
       <r>    74.5467     0.0000   112.0000 </r>
       <r>    74.9100     0.0000   112.0000 </r>
       <r>    75.2733     0.0000   112.0000 </r>
       <r>    75.6367     0.0000   112.0000 </r>
       <r>    76.0000     0.0000   112.0000 </r>
       <r>    76.3633     0.0000   112.0000 </r>
       <r>    76.7266     0.0000   112.0000 </r>
       <r>    77.0899     0.0000   112.0000 </r>
       <r>    77.4533     0.0000   112.0000 </r>
       <r>    77.8166     0.0000   112.0000 </r>
       <r>    78.1799     0.0000   112.0000 </r>
       <r>    78.5432     0.0000   112.0000 </r>
       <r>    78.9065     0.0000   112.0000 </r>
       <r>    79.2698     0.0000   112.0000 </r>
       <r>    79.6332     0.0000   112.0000 </r>
       <r>    79.9965     0.0000   112.0000 </r>
       <r>    80.3598     0.0000   112.0000 </r>
       <r>    80.7231     0.0000   112.0000 </r>
       <r>    81.0864     0.0000   112.0000 </r>
       <r>    81.4498     0.0000   112.0000 </r>
       <r>    81.8131     0.0000   112.0000 </r>
       <r>    82.1764     0.0000   112.0000 </r>
       <r>    82.5397     0.0000   112.0000 </r>
       <r>    82.9030     0.0000   112.0000 </r>
       <r>    83.2663     0.0000   112.0000 </r>
       <r>    83.6297     0.0000   112.0000 </r>
       <r>    83.9930     0.0000   112.0000 </r>
       <r>    84.3563     0.0000   112.0000 </r>
       <r>    84.7196     0.0000   112.0000 </r>
       <r>    85.0829     0.0000   112.0000 </r>
       <r>    85.4463     0.0000   112.0000 </r>
       <r>    85.8096     0.0000   112.0000 </r>
       <r>    86.1729     0.0000   112.0000 </r>
       <r>    86.5362     0.0000   112.0000 </r>
       <r>    86.8995     0.0000   112.0000 </r>
       <r>    87.2628     0.0000   112.0000 </r>
       <r>    87.6262     0.0000   112.0000 </r>
       <r>    87.9895     0.0000   112.0000 </r>
       <r>    88.3528     0.0000   112.0000 </r>
       <r>    88.7161     0.0000   112.0000 </r>
       <r>    89.0794     0.0000   112.0000 </r>
       <r>    89.4428     0.0000   112.0000 </r>
       <r>    89.8061     0.0000   112.0000 </r>
       <r>    90.1694     0.0000   112.0000 </r>
       <r>    90.5327     0.0000   112.0000 </r>
       <r>    90.8960     0.0000   112.0000 </r>
       <r>    91.2593     0.0000   112.0000 </r>
       <r>    91.6227     0.0000   112.0000 </r>
       <r>    91.9860     0.0000   112.0000 </r>
       <r>    92.3493     0.0000   112.0000 </r>
       <r>    92.7126     0.0000   112.0000 </r>
       <r>    93.0759     0.0000   112.0000 </r>
       <r>    93.4393     0.0000   112.0000 </r>
      </set>
     </set>
    </array>
   </total>
  </dos>
 </calculation>
 <structure name="finalpos" >
  <crystal>
   <varray name="basis" >
    <v>       0.00000000       2.81650000       2.81650000 </v>
    <v>       2.81650000       0.00000000       2.81650000 </v>
    <v>       2.81650000       2.81650000       0.00000000 </v>
   </varray>
   <i name="volume">     44.68474278 </i>
   <varray name="rec_basis" >
    <v>      -0.17752530       0.17752530       0.17752530 </v>
    <v>       0.17752530      -0.17752530       0.17752530 </v>
    <v>       0.17752530       0.17752530      -0.17752530 </v>
   </varray>
  </crystal>
  <varray name="positions" >
   <v>       0.00000000       0.00000000       0.00000000 </v>
   <v>       0.25000000       0.25000000       0.25000000 </v>
  </varray>
 </structure>
</modeling>
