<?xml version="1.0" encoding="ISO-8859-1"?>
<modeling>
 <generator>
  <i name="program" type="string">vasp </i>
  <i name="version" type="string">5.4.4.18Apr17-6-g9f103f2a35  </i>
  <i name="subversion" type="string">(build Sep 10 2021 22:26:18) complex            parallel </i>
  <i name="platform" type="string">LinuxIFC </i>
  <i name="date" type="string">2022 02 18 </i>
  <i name="time" type="string">01:34:24 </i>
 </generator>
 <incar>
  <i type="string" name="PREC">n</i>
  <i type="string" name="ALGO"> D</i>
  <i type="logical" name="LDIAG"> T  </i>
  <i type="int" name="ISPIN">     2</i>
  <i type="int" name="ICHARG">    11</i>
  <i name="ENCUT">    450.00000000</i>
  <i type="int" name="NBANDS">    54</i>
  <v name="MAGMOM">      0.00000000      0.00000000      0.00000000      0.00000000      0.00000000      0.00000000</v>
  <i name="TIME">      0.40000000</i>
  <i type="int" name="ISMEAR">     0</i>
  <i name="SIGMA">      0.05000000</i>
  <i type="logical" name="LWAVE"> F  </i>
  <i type="logical" name="LCHARG"> F  </i>
  <v type="int" name="KPOINT_BSE">    -1     0     0     0</v>
  <i type="logical" name="LHFCALC"> T  </i>
  <i type="string" name="GGA"> PE</i>
  <i name="HFSCREEN">      0.20000000</i>
  <i name="AEXX">      0.25000000</i>
 </incar>
 <structure name="primitive_cell" >
  <crystal>
   <varray name="basis" >
    <v>       0.00000000       2.81650000       2.81650000 </v>
    <v>       2.81650000       0.00000000       2.81650000 </v>
    <v>       2.81650000       2.81650000       0.00000000 </v>
   </varray>
   <i name="volume">     44.68474278 </i>
   <varray name="rec_basis" >
    <v>      -0.17752530       0.17752530       0.17752530 </v>
    <v>       0.17752530      -0.17752530       0.17752530 </v>
    <v>       0.17752530       0.17752530      -0.17752530 </v>
   </varray>
  </crystal>
  <varray name="positions" >
   <v>       0.00000000       0.00000000       0.00000000 </v>
   <v>       0.25000000       0.25000000       0.25000000 </v>
  </varray>
 </structure>
 <varray name="primitive_index" >
  <v type="int" >        1 </v>
  <v type="int" >        2 </v>
 </varray>
 <kpoints>
  <varray name="kpointlist" >
   <v>       0.00000000       0.00000000       0.00000000 </v>
   <v>       0.25000000       0.00000000       0.00000000 </v>
   <v>       0.50000000       0.00000000       0.00000000 </v>
   <v>       0.25000000       0.25000000       0.00000000 </v>
   <v>       0.50000000       0.25000000       0.00000000 </v>
   <v>      -0.25000000       0.25000000       0.00000000 </v>
   <v>       0.50000000       0.50000000       0.00000000 </v>
   <v>      -0.25000000       0.50000000       0.25000000 </v>
   <v>       0.50000000       0.50000000       0.50000000 </v>
   <v>       0.48979592       0.48979592       0.48979592 </v>
   <v>       0.47959184       0.47959184       0.47959184 </v>
   <v>       0.46938776       0.46938776       0.46938776 </v>
   <v>       0.45918367       0.45918367       0.45918367 </v>
   <v>       0.44897959       0.44897959       0.44897959 </v>
   <v>       0.43877551       0.43877551       0.43877551 </v>
   <v>       0.42857143       0.42857143       0.42857143 </v>
   <v>       0.41836735       0.41836735       0.41836735 </v>
   <v>       0.40816327       0.40816327       0.40816327 </v>
   <v>       0.39795918       0.39795918       0.39795918 </v>
   <v>       0.38775510       0.38775510       0.38775510 </v>
   <v>       0.37755102       0.37755102       0.37755102 </v>
   <v>       0.36734694       0.36734694       0.36734694 </v>
   <v>       0.35714286       0.35714286       0.35714286 </v>
   <v>       0.34693878       0.34693878       0.34693878 </v>
   <v>       0.33673469       0.33673469       0.33673469 </v>
   <v>       0.32653061       0.32653061       0.32653061 </v>
   <v>       0.31632653       0.31632653       0.31632653 </v>
   <v>       0.30612245       0.30612245       0.30612245 </v>
   <v>       0.29591837       0.29591837       0.29591837 </v>
   <v>       0.28571429       0.28571429       0.28571429 </v>
   <v>       0.27551020       0.27551020       0.27551020 </v>
   <v>       0.26530612       0.26530612       0.26530612 </v>
   <v>       0.25510204       0.25510204       0.25510204 </v>
   <v>       0.24489796       0.24489796       0.24489796 </v>
   <v>       0.23469388       0.23469388       0.23469388 </v>
   <v>       0.22448980       0.22448980       0.22448980 </v>
   <v>       0.21428571       0.21428571       0.21428571 </v>
   <v>       0.20408163       0.20408163       0.20408163 </v>
   <v>       0.19387755       0.19387755       0.19387755 </v>
   <v>       0.18367347       0.18367347       0.18367347 </v>
   <v>       0.17346939       0.17346939       0.17346939 </v>
   <v>       0.16326531       0.16326531       0.16326531 </v>
   <v>       0.15306122       0.15306122       0.15306122 </v>
   <v>       0.14285714       0.14285714       0.14285714 </v>
   <v>       0.13265306       0.13265306       0.13265306 </v>
   <v>       0.12244898       0.12244898       0.12244898 </v>
   <v>       0.11224490       0.11224490       0.11224490 </v>
   <v>       0.10204082       0.10204082       0.10204082 </v>
   <v>       0.09183673       0.09183673       0.09183673 </v>
   <v>       0.08163265       0.08163265       0.08163265 </v>
   <v>       0.07142857       0.07142857       0.07142857 </v>
   <v>       0.06122449       0.06122449       0.06122449 </v>
   <v>       0.05102041       0.05102041       0.05102041 </v>
   <v>       0.04081633       0.04081633       0.04081633 </v>
   <v>       0.03061224       0.03061224       0.03061224 </v>
   <v>       0.02040816       0.02040816       0.02040816 </v>
   <v>       0.01020408       0.01020408       0.01020408 </v>
   <v>       0.00000000       0.00000000       0.00000000 </v>
   <v>       0.00000000       0.00000000       0.00000000 </v>
   <v>       0.01020408       0.00000000       0.01020408 </v>
   <v>       0.02040816       0.00000000       0.02040816 </v>
   <v>       0.03061224       0.00000000       0.03061224 </v>
   <v>       0.04081633       0.00000000       0.04081633 </v>
   <v>       0.05102041       0.00000000       0.05102041 </v>
   <v>       0.06122449       0.00000000       0.06122449 </v>
   <v>       0.07142857       0.00000000       0.07142857 </v>
   <v>       0.08163265       0.00000000       0.08163265 </v>
   <v>       0.09183673       0.00000000       0.09183673 </v>
   <v>       0.10204082       0.00000000       0.10204082 </v>
   <v>       0.11224490       0.00000000       0.11224490 </v>
   <v>       0.12244898       0.00000000       0.12244898 </v>
   <v>       0.13265306       0.00000000       0.13265306 </v>
   <v>       0.14285714       0.00000000       0.14285714 </v>
   <v>       0.15306122       0.00000000       0.15306122 </v>
   <v>       0.16326531       0.00000000       0.16326531 </v>
   <v>       0.17346939       0.00000000       0.17346939 </v>
   <v>       0.18367347       0.00000000       0.18367347 </v>
   <v>       0.19387755       0.00000000       0.19387755 </v>
   <v>       0.20408163       0.00000000       0.20408163 </v>
   <v>       0.21428571       0.00000000       0.21428571 </v>
   <v>       0.22448980       0.00000000       0.22448980 </v>
   <v>       0.23469388       0.00000000       0.23469388 </v>
   <v>       0.24489796       0.00000000       0.24489796 </v>
   <v>       0.25510204       0.00000000       0.25510204 </v>
   <v>       0.26530612       0.00000000       0.26530612 </v>
   <v>       0.27551020       0.00000000       0.27551020 </v>
   <v>       0.28571429       0.00000000       0.28571429 </v>
   <v>       0.29591837       0.00000000       0.29591837 </v>
   <v>       0.30612245       0.00000000       0.30612245 </v>
   <v>       0.31632653       0.00000000       0.31632653 </v>
   <v>       0.32653061       0.00000000       0.32653061 </v>
   <v>       0.33673469       0.00000000       0.33673469 </v>
   <v>       0.34693878       0.00000000       0.34693878 </v>
   <v>       0.35714286       0.00000000       0.35714286 </v>
   <v>       0.36734694       0.00000000       0.36734694 </v>
   <v>       0.37755102       0.00000000       0.37755102 </v>
   <v>       0.38775510       0.00000000       0.38775510 </v>
   <v>       0.39795918       0.00000000       0.39795918 </v>
   <v>       0.40816327       0.00000000       0.40816327 </v>
   <v>       0.41836735       0.00000000       0.41836735 </v>
   <v>       0.42857143       0.00000000       0.42857143 </v>
   <v>       0.43877551       0.00000000       0.43877551 </v>
   <v>       0.44897959       0.00000000       0.44897959 </v>
   <v>       0.45918367       0.00000000       0.45918367 </v>
   <v>       0.46938776       0.00000000       0.46938776 </v>
   <v>       0.47959184       0.00000000       0.47959184 </v>
   <v>       0.48979592       0.00000000       0.48979592 </v>
   <v>       0.50000000       0.00000000       0.50000000 </v>
  </varray>
  <varray name="weights" >
   <v>       0.01562500 </v>
   <v>       0.12500000 </v>
   <v>       0.06250000 </v>
   <v>       0.09375000 </v>
   <v>       0.37500000 </v>
   <v>       0.18750000 </v>
   <v>       0.04687500 </v>
   <v>       0.09375000 </v>
   <v>       0.00000000 </v>
   <v>       0.00000000 </v>
   <v>       0.00000000 </v>
   <v>       0.00000000 </v>
   <v>       0.00000000 </v>
   <v>       0.00000000 </v>
   <v>       0.00000000 </v>
   <v>       0.00000000 </v>
   <v>       0.00000000 </v>
   <v>       0.00000000 </v>
   <v>       0.00000000 </v>
   <v>       0.00000000 </v>
   <v>       0.00000000 </v>
   <v>       0.00000000 </v>
   <v>       0.00000000 </v>
   <v>       0.00000000 </v>
   <v>       0.00000000 </v>
   <v>       0.00000000 </v>
   <v>       0.00000000 </v>
   <v>       0.00000000 </v>
   <v>       0.00000000 </v>
   <v>       0.00000000 </v>
   <v>       0.00000000 </v>
   <v>       0.00000000 </v>
   <v>       0.00000000 </v>
   <v>       0.00000000 </v>
   <v>       0.00000000 </v>
   <v>       0.00000000 </v>
   <v>       0.00000000 </v>
   <v>       0.00000000 </v>
   <v>       0.00000000 </v>
   <v>       0.00000000 </v>
   <v>       0.00000000 </v>
   <v>       0.00000000 </v>
   <v>       0.00000000 </v>
   <v>       0.00000000 </v>
   <v>       0.00000000 </v>
   <v>       0.00000000 </v>
   <v>       0.00000000 </v>
   <v>       0.00000000 </v>
   <v>       0.00000000 </v>
   <v>       0.00000000 </v>
   <v>       0.00000000 </v>
   <v>       0.00000000 </v>
   <v>       0.00000000 </v>
   <v>       0.00000000 </v>
   <v>       0.00000000 </v>
   <v>       0.00000000 </v>
   <v>       0.00000000 </v>
   <v>       0.00000000 </v>
   <v>       0.00000000 </v>
   <v>       0.00000000 </v>
   <v>       0.00000000 </v>
   <v>       0.00000000 </v>
   <v>       0.00000000 </v>
   <v>       0.00000000 </v>
   <v>       0.00000000 </v>
   <v>       0.00000000 </v>
   <v>       0.00000000 </v>
   <v>       0.00000000 </v>
   <v>       0.00000000 </v>
   <v>       0.00000000 </v>
   <v>       0.00000000 </v>
   <v>       0.00000000 </v>
   <v>       0.00000000 </v>
   <v>       0.00000000 </v>
   <v>       0.00000000 </v>
   <v>       0.00000000 </v>
   <v>       0.00000000 </v>
   <v>       0.00000000 </v>
   <v>       0.00000000 </v>
   <v>       0.00000000 </v>
   <v>       0.00000000 </v>
   <v>       0.00000000 </v>
   <v>       0.00000000 </v>
   <v>       0.00000000 </v>
   <v>       0.00000000 </v>
   <v>       0.00000000 </v>
   <v>       0.00000000 </v>
   <v>       0.00000000 </v>
   <v>       0.00000000 </v>
   <v>       0.00000000 </v>
   <v>       0.00000000 </v>
   <v>       0.00000000 </v>
   <v>       0.00000000 </v>
   <v>       0.00000000 </v>
   <v>       0.00000000 </v>
   <v>       0.00000000 </v>
   <v>       0.00000000 </v>
   <v>       0.00000000 </v>
   <v>       0.00000000 </v>
   <v>       0.00000000 </v>
   <v>       0.00000000 </v>
   <v>       0.00000000 </v>
   <v>       0.00000000 </v>
   <v>       0.00000000 </v>
   <v>       0.00000000 </v>
   <v>       0.00000000 </v>
   <v>       0.00000000 </v>
   <v>       0.00000000 </v>
  </varray>
 </kpoints>
 <parameters>
  <separator name="general" >
   <i type="string" name="SYSTEM">unknown system</i>
   <i type="logical" name="LCOMPAT"> F  </i>
  </separator>
  <separator name="electronic" >
   <i type="string" name="PREC">n</i>
   <i name="ENMAX">    450.00000000</i>
   <i name="ENAUG">    385.84300000</i>
   <i name="EDIFF">      0.00010000</i>
   <i type="int" name="IALGO">    53</i>
   <i type="int" name="IWAVPR">    10</i>
   <i type="int" name="NBANDS">    54</i>
   <i name="NELECT">      8.00000000</i>
   <i type="int" name="TURBO">     0</i>
   <i type="int" name="IRESTART">     0</i>
   <i type="int" name="NREBOOT">     0</i>
   <i type="int" name="NMIN">     0</i>
   <i name="EREF">      0.00000000</i>
   <separator name="electronic smearing" >
    <i type="int" name="ISMEAR">     0</i>
    <i name="SIGMA">      0.05000000</i>
    <i name="KSPACING">      0.50000000</i>
    <i type="logical" name="KGAMMA"> T  </i>
   </separator>
   <separator name="electronic projectors" >
    <i type="logical" name="LREAL"> F  </i>
    <v name="ROPT">      0.00000000</v>
    <i type="int" name="LMAXPAW">  -100</i>
    <i type="int" name="LMAXMIX">     2</i>
    <i type="logical" name="NLSPLINE"> F  </i>
   </separator>
   <separator name="electronic startup" >
    <i type="int" name="ISTART">     1</i>
    <i type="int" name="ICHARG">    11</i>
    <i type="int" name="INIWAV">     1</i>
   </separator>
   <separator name="electronic spin" >
    <i type="int" name="ISPIN">     2</i>
    <i type="logical" name="LNONCOLLINEAR"> F  </i>
    <v name="MAGMOM">      0.00000000      0.00000000</v>
    <i name="NUPDOWN">     -1.00000000</i>
    <i type="logical" name="LSORBIT"> F  </i>
    <v name="SAXIS">      0.00000000      0.00000000      1.00000000</v>
    <i type="logical" name="LSPIRAL"> F  </i>
    <v name="QSPIRAL">      0.00000000      0.00000000      0.00000000</v>
    <i type="logical" name="LZEROZ"> F  </i>
   </separator>
   <separator name="electronic exchange-correlation" >
    <i type="logical" name="LASPH"> F  </i>
    <i type="logical" name="LMETAGGA"> F  </i>
   </separator>
   <separator name="electronic convergence" >
    <i type="int" name="NELM">    60</i>
    <i type="int" name="NELMDL">     0</i>
    <i type="int" name="NELMIN">     2</i>
    <i name="ENINI">    450.00000000</i>
    <separator name="electronic convergence detail" >
     <i type="logical" name="LDIAG"> T  </i>
     <i type="logical" name="LSUBROT"> F  </i>
     <i name="WEIMIN">      0.00000000</i>
     <i name="EBREAK">      0.00000046</i>
     <i name="DEPER">      0.30000000</i>
     <i type="int" name="NRMM">     4</i>
     <i name="TIME">      0.40000000</i>
    </separator>
   </separator>
   <separator name="electronic mixer" >
    <i name="AMIX">      0.40000000</i>
    <i name="BMIX">      1.00000000</i>
    <i name="AMIN">      0.10000000</i>
    <i name="AMIX_MAG">      1.60000000</i>
    <i name="BMIX_MAG">      1.00000000</i>
    <separator name="electronic mixer details" >
     <i type="int" name="IMIX">     4</i>
     <i type="logical" name="MIXFIRST"> F  </i>
     <i type="int" name="MAXMIX">   -45</i>
     <i name="WC">    100.00000000</i>
     <i type="int" name="INIMIX">     1</i>
     <i type="int" name="MIXPRE">     1</i>
     <i type="int" name="MREMOVE">     5</i>
    </separator>
   </separator>
   <separator name="electronic dipolcorrection" >
    <i type="logical" name="LDIPOL"> F  </i>
    <i type="logical" name="LMONO"> F  </i>
    <i type="int" name="IDIPOL">     0</i>
    <i name="EPSILON">      1.00000000</i>
    <v name="DIPOL">   -100.00000000   -100.00000000   -100.00000000</v>
    <i name="EFIELD">      0.00000000</i>
   </separator>
  </separator>
  <separator name="grids" >
   <i type="int" name="NGX">    24</i>
   <i type="int" name="NGY">    24</i>
   <i type="int" name="NGZ">    24</i>
   <i type="int" name="NGXF">    48</i>
   <i type="int" name="NGYF">    48</i>
   <i type="int" name="NGZF">    48</i>
   <i type="logical" name="ADDGRID"> F  </i>
  </separator>
  <separator name="ionic" >
   <i type="int" name="NSW">     0</i>
   <i type="int" name="IBRION">    -1</i>
   <i type="int" name="MDALGO">     0</i>
   <i type="int" name="ISIF">     0</i>
   <i name="PSTRESS">      0.00000000</i>
   <i name="EDIFFG">      0.00100000</i>
   <i type="int" name="NFREE">     0</i>
   <i name="POTIM">      0.50000000</i>
   <i name="SMASS">     -3.00000000</i>
   <i name="SCALEE">      1.00000000</i>
  </separator>
  <separator name="ionic md" >
   <i name="TEBEG">      0.00010000</i>
   <i name="TEEND">      0.00010000</i>
   <i type="int" name="NBLOCK">     1</i>
   <i type="int" name="KBLOCK">     1</i>
   <i type="int" name="NPACO">   256</i>
   <i name="APACO">     16.00000000</i>
  </separator>
  <separator name="symmetry" >
   <i type="int" name="ISYM">     3</i>
   <i name="SYMPREC">      0.00001000</i>
  </separator>
  <separator name="dos" >
   <i type="int" name="LORBIT">     0</i>
   <v name="RWIGS">     -1.00000000</v>
   <i type="int" name="NEDOS">   301</i>
   <i name="EMIN">     10.00000000</i>
   <i name="EMAX">    -10.00000000</i>
   <i name="EFERMI">      0.00000000</i>
  </separator>
  <separator name="writing" >
   <i type="int" name="NWRITE">     2</i>
   <i type="logical" name="LWAVE"> F  </i>
   <i type="logical" name="LDOWNSAMPLE"> F  </i>
   <i type="logical" name="LCHARG"> F  </i>
   <i type="logical" name="LPARD"> F  </i>
   <i type="logical" name="LVTOT"> F  </i>
   <i type="logical" name="LVHAR"> F  </i>
   <i type="logical" name="LELF"> F  </i>
   <i type="logical" name="LOPTICS"> F  </i>
   <v name="STM">      0.00000000      0.00000000      0.00000000      0.00000000      0.00000000      0.00000000      0.00000000</v>
  </separator>
  <separator name="performance" >
   <i type="int" name="NPAR">     3</i>
   <i type="int" name="NSIM">     4</i>
   <i type="int" name="NBLK">    -1</i>
   <i type="logical" name="LPLANE"> T  </i>
   <i type="logical" name="LSCALAPACK"> T  </i>
   <i type="logical" name="LSCAAWARE"> F  </i>
   <i type="logical" name="LSCALU"> F  </i>
   <i type="logical" name="LASYNC"> F  </i>
   <i type="logical" name="LORBITALREAL"> F  </i>
  </separator>
  <separator name="miscellaneous" >
   <i type="int" name="IDIOT">     3</i>
   <i type="int" name="ISPECIAL">     0</i>
   <i type="logical" name="LMUSIC"> F  </i>
   <v name="POMASS">     72.61000000</v>
   <v name="DARWINR">      0.00000000</v>
   <v name="DARWINV">      1.00000000</v>
   <i type="logical" name="LCORR"> T  </i>
  </separator>
  <i type="logical" name="GGA_COMPAT"> T  </i>
  <i type="logical" name="LBERRY"> F  </i>
  <i type="int" name="ICORELEVEL">     0</i>
  <i type="logical" name="LDAU"> F  </i>
  <i type="int" name="I_CONSTRAINED_M">     0</i>
  <separator name="electronic exchange-correlation" >
   <i type="string" name="GGA">PE</i>
   <i type="int" name="VOSKOWN">     0</i>
   <i type="logical" name="LHFCALC"> T  </i>
   <i type="string" name="PRECFOCK">normal</i>
   <i type="logical" name="LSYMGRAD"> F  </i>
   <i type="logical" name="LHFONE"> F  </i>
   <i type="logical" name="LRHFCALC"> F  </i>
   <i type="logical" name="LTHOMAS"> F  </i>
   <i type="logical" name="LMODELHF"> F  </i>
   <i name="ENCUT4O">     -1.00000000</i>
   <i type="int" name="EXXOEP">     0</i>
   <i type="int" name="FOURORBIT">     0</i>
   <i name="AEXX">      0.25000000</i>
   <i name="HFALPHA">     -1.00000000</i>
   <i name="MCALPHA">      0.00000000</i>
   <i name="ALDAX">      0.75000000</i>
   <i name="AGGAX">      0.75000000</i>
   <i name="ALDAC">      1.00000000</i>
   <i name="AGGAC">      1.00000000</i>
   <i type="int" name="NKREDX">     1</i>
   <i type="int" name="NKREDY">     1</i>
   <i type="int" name="NKREDZ">     1</i>
   <i type="logical" name="SHIFTRED"> F  </i>
   <i type="logical" name="ODDONLY"> F  </i>
   <i type="logical" name="EVENONLY"> F  </i>
   <i type="int" name="LMAXFOCK">     4</i>
   <i type="int" name="NMAXFOCKAE">     1</i>
   <i type="logical" name="LFOCKAEDFT"> F  </i>
   <i name="HFSCREEN">      0.20000000</i>
   <i name="HFSCREENC">      0.20000000</i>
   <i type="int" name="NBANDSGWLOW">     1</i>
  </separator>
  <separator name="vdW DFT" >
   <i type="logical" name="LUSE_VDW"> F  </i>
   <i name="Zab_VDW">     -0.84910000</i>
   <i name="PARAM1">      0.12340000</i>
   <i name="PARAM2">      1.00000000</i>
   <i name="PARAM3">      0.00000000</i>
  </separator>
  <separator name="model GW" >
   <i type="int" name="MODEL_GW">     0</i>
   <i name="MODEL_EPS0">     13.40542284</i>
   <i name="MODEL_ALPHA">      1.00000000</i>
  </separator>
  <separator name="linear response parameters" >
   <i type="logical" name="LEPSILON"> F  </i>
   <i type="logical" name="LRPA"> F  </i>
   <i type="logical" name="LNABLA"> F  </i>
   <i type="logical" name="LVEL"> F  </i>
   <i type="int" name="KINTER">     0</i>
   <i name="CSHIFT">      0.10000000</i>
   <i name="OMEGAMAX">     -1.00000000</i>
   <i name="DEG_THRESHOLD">      0.00200000</i>
   <i name="RTIME">     -0.10000000</i>
   <i name="WPLASMAI">      0.00000000</i>
   <v name="DFIELD">      0.00000000      0.00000000      0.00000000</v>
   <v name="WPLASMA">      0.00000000      0.00000000      0.00000000      0.00000000      0.00000000      0.00000000      0.00000000      0.00000000      0.00000000</v>
  </separator>
  <separator name="orbital magnetization" >
   <i type="logical" name="NUCIND"> F  </i>
   <v name="MAGPOS">      0.00000000      0.00000000      0.00000000</v>
   <i type="logical" name="LNICSALL"> T  </i>
   <i type="logical" name="ORBITALMAG"> F  </i>
   <i type="logical" name="LMAGBLOCH"> F  </i>
   <i type="logical" name="LCHIMAG"> F  </i>
   <i type="logical" name="LGAUGE"> T  </i>
   <i type="int" name="MAGATOM">     0</i>
   <v name="MAGDIPOL">      0.00000000      0.00000000      0.00000000</v>
   <v name="AVECCONST">      0.00000000      0.00000000      0.00000000</v>
  </separator>
  <separator name="response functions" >
   <i type="logical" name="LADDER"> F  </i>
   <i type="logical" name="LRPAFORCE"> F  </i>
   <i type="logical" name="LFXC"> F  </i>
   <i type="logical" name="LHARTREE"> T  </i>
   <i type="int" name="IBSE">     0</i>
   <v type="int" name="KPOINT">    -1     0     0     0</v>
   <i type="logical" name="LTCTE"> F  </i>
   <i type="logical" name="LTETE"> F  </i>
   <i type="logical" name="LTRIPLET"> F  </i>
   <i type="logical" name="LFXCEPS"> F  </i>
   <i type="logical" name="LFXHEG"> F  </i>
   <i type="int" name="NATURALO">     2</i>
   <i type="logical" name="L2ORDER"> F  </i>
   <i type="logical" name="LMP2LT"> F  </i>
   <i type="logical" name="LUSEW"> F  </i>
   <i name="ENCUTGW">     -2.00000000</i>
   <i name="ENCUTGWSOFT">     -2.00000000</i>
   <i name="ENCUTLF">     -1.00000000</i>
   <i type="int" name="LMAXMP2">    -1</i>
   <i name="SCISSOR">      0.00000000</i>
   <i type="int" name="NOMEGA">     0</i>
   <i type="int" name="NOMEGAR">     0</i>
   <i type="int" name="NBANDSGW">    -1</i>
   <i type="int" name="NBANDSO">    -1</i>
   <i type="int" name="NBANDSV">    -1</i>
   <i type="int" name="NELM">     1</i>
   <i type="int" name="NELMHF">     1</i>
   <i type="int" name="DIM">     3</i>
   <i type="int" name="ANTIRES">     0</i>
   <i name="OMEGAMAX">    -30.00000000</i>
   <i name="OMEGAMIN">    -30.00000000</i>
   <i name="OMEGATL">   -200.00000000</i>
   <i type="int" name="OMEGAGRID">   140</i>
   <i name="CSHIFT">     -0.10000000</i>
   <i type="logical" name="SELFENERGY"> F  </i>
   <i type="logical" name="LSPECTRAL"> F  </i>
   <i type="logical" name="LSPECTRALGW"> F  </i>
   <i type="logical" name="LSINGLES"> F  </i>
   <i type="logical" name="LFERMIGW"> F  </i>
   <i type="logical" name="ODDONLYGW"> F  </i>
   <i type="logical" name="EVENONLYGW"> F  </i>
   <i type="int" name="NKREDLFX">     1</i>
   <i type="int" name="NKREDLFY">     1</i>
   <i type="int" name="NKREDLFZ">     1</i>
   <i type="int" name="MAXMEM">  2800</i>
   <i type="int" name="TELESCOPE">     0</i>
   <i type="int" name="TAUPAR">     1</i>
   <i type="int" name="OMEGAPAR">    -1</i>
   <i name="LAMBDA">      1.00000000</i>
  </separator>
  <separator name="External order field" >
   <i name="OFIELD_KAPPA">      0.00000000</i>
   <v name="OFIELD_K">      0.00000000      0.00000000      0.00000000</v>
   <i name="OFIELD_Q6_NEAR">      0.00000000</i>
   <i name="OFIELD_Q6_FAR">      0.00000000</i>
   <i name="OFIELD_A">      0.00000000</i>
  </separator>
 </parameters>
 <atominfo>
  <atoms>       2 </atoms>
  <types>       1 </types>
  <array name="atoms" >
   <dimension dim="1">ion</dimension>
   <field type="string">element</field>
   <field type="int">atomtype</field>
   <set>
    <rc><c>Ge</c><c>   1</c></rc>
    <rc><c>Ge</c><c>   1</c></rc>
   </set>
  </array>
  <array name="atomtypes" >
   <dimension dim="1">type</dimension>
   <field type="int">atomspertype</field>
   <field type="string">element</field>
   <field>mass</field>
   <field>valence</field>
   <field type="string">pseudopotential</field>
   <set>
    <rc><c>   2</c><c>Ge</c><c>     72.61000000</c><c>      4.00000000</c><c>  PAW_PBE Ge 05Jan2001                  </c></rc>
   </set>
  </array>
 </atominfo>
 <structure name="initialpos" >
  <crystal>
   <varray name="basis" >
    <v>       0.00000000       2.81650000       2.81650000 </v>
    <v>       2.81650000       0.00000000       2.81650000 </v>
    <v>       2.81650000       2.81650000       0.00000000 </v>
   </varray>
   <i name="volume">     44.68474278 </i>
   <varray name="rec_basis" >
    <v>      -0.17752530       0.17752530       0.17752530 </v>
    <v>       0.17752530      -0.17752530       0.17752530 </v>
    <v>       0.17752530       0.17752530      -0.17752530 </v>
   </varray>
  </crystal>
  <varray name="positions" >
   <v>       0.00000000       0.00000000       0.00000000 </v>
   <v>       0.25000000       0.25000000       0.25000000 </v>
  </varray>
 </structure>
 <calculation>
  <scstep>
   <time name="total">  143.76  143.83</time>
   <energy>
    <i name="alphaZ">     17.10940282 </i>
    <i name="ewald">   -220.32663596 </i>
    <i name="hartreedc">    -15.78783971 </i>
    <i name="XCdc">    -12.14782127 </i>
    <i name="pawpsdc">    477.13771159 </i>
    <i name="pawaedc">   -453.67999259 </i>
    <i name="eentropy">     -0.00000011 </i>
    <i name="bandstr">    -20.79649011 </i>
    <i name="atom">    207.36337913 </i>
    <i name="e_fr_energy">    -10.38779725 </i>
    <i name="e_wo_entrp">    -10.38779715 </i>
    <i name="e_0_energy">    -10.38779720 </i>
   </energy>
  </scstep>
  <scstep>
   <time name="total">  143.27  143.36</time>
   <energy>
    <i name="e_fr_energy">    -10.42372026 </i>
    <i name="e_wo_entrp">    -10.42372026 </i>
    <i name="e_0_energy">    -10.42372026 </i>
   </energy>
  </scstep>
  <scstep>
   <time name="total">  143.06  143.14</time>
   <energy>
    <i name="e_fr_energy">    -10.44753382 </i>
    <i name="e_wo_entrp">    -10.44753382 </i>
    <i name="e_0_energy">    -10.44753382 </i>
   </energy>
  </scstep>
  <scstep>
   <time name="total">  142.57  142.65</time>
   <energy>
    <i name="e_fr_energy">    -10.45784517 </i>
    <i name="e_wo_entrp">    -10.45784517 </i>
    <i name="e_0_energy">    -10.45784517 </i>
   </energy>
  </scstep>
  <scstep>
   <time name="total">  142.78  142.85</time>
   <energy>
    <i name="e_fr_energy">    -10.46262819 </i>
    <i name="e_wo_entrp">    -10.46262819 </i>
    <i name="e_0_energy">    -10.46262819 </i>
   </energy>
  </scstep>
  <scstep>
   <time name="total">  142.76  142.84</time>
   <energy>
    <i name="e_fr_energy">    -10.46536218 </i>
    <i name="e_wo_entrp">    -10.46536218 </i>
    <i name="e_0_energy">    -10.46536218 </i>
   </energy>
  </scstep>
  <scstep>
   <time name="total">  142.74  142.82</time>
   <energy>
    <i name="e_fr_energy">    -10.46691964 </i>
    <i name="e_wo_entrp">    -10.46691964 </i>
    <i name="e_0_energy">    -10.46691964 </i>
   </energy>
  </scstep>
  <scstep>
   <time name="total">  142.73  142.81</time>
   <energy>
    <i name="e_fr_energy">    -10.46769270 </i>
    <i name="e_wo_entrp">    -10.46769270 </i>
    <i name="e_0_energy">    -10.46769270 </i>
   </energy>
  </scstep>
  <scstep>
   <time name="total">  142.68  142.76</time>
   <energy>
    <i name="e_fr_energy">    -10.46804684 </i>
    <i name="e_wo_entrp">    -10.46804684 </i>
    <i name="e_0_energy">    -10.46804684 </i>
   </energy>
  </scstep>
  <scstep>
   <time name="total">  142.70  142.78</time>
   <energy>
    <i name="e_fr_energy">    -10.46821324 </i>
    <i name="e_wo_entrp">    -10.46821324 </i>
    <i name="e_0_energy">    -10.46821324 </i>
   </energy>
  </scstep>
  <scstep>
   <time name="total">  284.95  285.10</time>
   <energy>
    <i name="alphaZ">     17.10940282 </i>
    <i name="ewald">   -220.32663596 </i>
    <i name="hartreedc">    -15.78783971 </i>
    <i name="XCdc">    -12.14782127 </i>
    <i name="pawpsdc">    477.13771159 </i>
    <i name="pawaedc">   -453.67999259 </i>
    <i name="eentropy">     -0.00000000 </i>
    <i name="bandstr">    -20.91761744 </i>
    <i name="atom">    207.36337913 </i>
    <i name="e_fr_energy">    -10.46829371 </i>
    <i name="e_wo_entrp">    -10.46829371 </i>
    <i name="e_0_energy">    -10.46829371 </i>
   </energy>
  </scstep>
  <structure>
   <crystal>
    <varray name="basis" >
     <v>       0.00000000       2.81650000       2.81650000 </v>
     <v>       2.81650000       0.00000000       2.81650000 </v>
     <v>       2.81650000       2.81650000       0.00000000 </v>
    </varray>
    <i name="volume">     44.68474278 </i>
    <varray name="rec_basis" >
     <v>      -0.17752530       0.17752530       0.17752530 </v>
     <v>       0.17752530      -0.17752530       0.17752530 </v>
     <v>       0.17752530       0.17752530      -0.17752530 </v>
    </varray>
   </crystal>
   <varray name="positions" >
    <v>       0.00000000       0.00000000       0.00000000 </v>
    <v>       0.25000000       0.25000000       0.25000000 </v>
   </varray>
  </structure>
  <varray name="forces" >
   <v>      -0.00000000      -0.00000000      -0.00000000 </v>
   <v>       0.00000000       0.00000000       0.00000000 </v>
  </varray>
  <energy>
   <i name="e_fr_energy">    -10.46829371 </i>
   <i name="e_wo_entrp">    -10.46829371 </i>
   <i name="e_0_energy">     -0.00000000 </i>
  </energy>
  <time name="totalsc"> 1750.14 1751.14</time>
  <eigenvalues>
   <array>
    <dimension dim="1">band</dimension>
    <dimension dim="2">kpoint</dimension>
    <dimension dim="3">spin</dimension>
    <field>eigene</field>
    <field>occ</field>
    <set>
     <set comment="spin 1">
      <set comment="kpoint 1">
       <r>  -10.6018    1.0000 </r>
       <r>    3.5322    1.0000 </r>
       <r>    3.5322    1.0000 </r>
       <r>    3.5322    1.0000 </r>
       <r>    4.6652    0.0000 </r>
       <r>    6.7802    0.0000 </r>
       <r>    6.7802    0.0000 </r>
       <r>    6.7802    0.0000 </r>
       <r>   10.8684    0.0000 </r>
       <r>   13.6813    0.0000 </r>
       <r>   13.6813    0.0000 </r>
       <r>   15.2460    0.0000 </r>
       <r>   15.2460    0.0000 </r>
       <r>   15.2460    0.0000 </r>
       <r>   18.2768    0.0000 </r>
       <r>   29.1211    0.0000 </r>
       <r>   29.1211    0.0000 </r>
       <r>   29.1211    0.0000 </r>
       <r>   30.3354    0.0000 </r>
       <r>   30.3354    0.0000 </r>
       <r>   30.3354    0.0000 </r>
       <r>   30.4007    0.0000 </r>
       <r>   30.4007    0.0000 </r>
       <r>   31.3798    0.0000 </r>
       <r>   31.3798    0.0000 </r>
       <r>   31.3798    0.0000 </r>
       <r>   39.5713    0.0000 </r>
       <r>   40.0249    0.0000 </r>
       <r>   40.0249    0.0000 </r>
       <r>   40.0249    0.0000 </r>
       <r>   42.8161    0.0000 </r>
       <r>   42.8161    0.0000 </r>
       <r>   43.4701    0.0000 </r>
       <r>   43.4701    0.0000 </r>
       <r>   44.9237    0.0000 </r>
       <r>   44.9237    0.0000 </r>
       <r>   44.9237    0.0000 </r>
       <r>   45.1213    0.0000 </r>
       <r>   45.4433    0.0000 </r>
       <r>   45.4433    0.0000 </r>
       <r>   45.4433    0.0000 </r>
       <r>   46.1936    0.0000 </r>
       <r>   46.1936    0.0000 </r>
       <r>   46.1936    0.0000 </r>
       <r>   46.6011    0.0000 </r>
       <r>   46.6012    0.0000 </r>
       <r>   46.6013    0.0000 </r>
       <r>   47.6034    0.0000 </r>
       <r>   47.6037    0.0000 </r>
       <r>   47.6040    0.0000 </r>
       <r>   51.1206    0.0000 </r>
       <r>   52.9452    0.0000 </r>
       <r>   53.0175    0.0000 </r>
       <r>   53.0957    0.0000 </r>
      </set>
      <set comment="kpoint 2">
       <r>   -9.7694    1.0000 </r>
       <r>   -1.4944    1.0000 </r>
       <r>    2.5801    1.0000 </r>
       <r>    2.5801    1.0000 </r>
       <r>    5.0070    0.0000 </r>
       <r>    7.9284    0.0000 </r>
       <r>    7.9284    0.0000 </r>
       <r>   10.2330    0.0000 </r>
       <r>   12.4542    0.0000 </r>
       <r>   12.5831    0.0000 </r>
       <r>   12.5831    0.0000 </r>
       <r>   15.5202    0.0000 </r>
       <r>   19.4742    0.0000 </r>
       <r>   19.4742    0.0000 </r>
       <r>   22.4148    0.0000 </r>
       <r>   22.6321    0.0000 </r>
       <r>   22.6321    0.0000 </r>
       <r>   23.4205    0.0000 </r>
       <r>   30.2351    0.0000 </r>
       <r>   30.2351    0.0000 </r>
       <r>   31.2010    0.0000 </r>
       <r>   31.2010    0.0000 </r>
       <r>   32.0310    0.0000 </r>
       <r>   32.8549    0.0000 </r>
       <r>   33.7956    0.0000 </r>
       <r>   34.9531    0.0000 </r>
       <r>   34.9531    0.0000 </r>
       <r>   37.8460    0.0000 </r>
       <r>   37.8460    0.0000 </r>
       <r>   38.2371    0.0000 </r>
       <r>   38.2371    0.0000 </r>
       <r>   40.1028    0.0000 </r>
       <r>   40.6643    0.0000 </r>
       <r>   40.6643    0.0000 </r>
       <r>   40.9921    0.0000 </r>
       <r>   41.3256    0.0000 </r>
       <r>   43.7192    0.0000 </r>
       <r>   43.7192    0.0000 </r>
       <r>   44.7178    0.0000 </r>
       <r>   45.7085    0.0000 </r>
       <r>   45.9473    0.0000 </r>
       <r>   45.9473    0.0000 </r>
       <r>   46.3695    0.0000 </r>
       <r>   49.8735    0.0000 </r>
       <r>   49.8736    0.0000 </r>
       <r>   51.0402    0.0000 </r>
       <r>   51.0404    0.0000 </r>
       <r>   51.9433    0.0000 </r>
       <r>   52.2273    0.0000 </r>
       <r>   52.2277    0.0000 </r>
       <r>   53.6488    0.0000 </r>
       <r>   54.7979    0.0000 </r>
       <r>   57.9040    0.0000 </r>
       <r>   58.1552    0.0000 </r>
      </set>
      <set comment="kpoint 3">
       <r>   -8.2430    1.0000 </r>
       <r>   -4.8094    1.0000 </r>
       <r>    1.9902    1.0000 </r>
       <r>    1.9902    1.0000 </r>
       <r>    4.4745    0.0000 </r>
       <r>    7.9988    0.0000 </r>
       <r>    7.9988    0.0000 </r>
       <r>   11.4973    0.0000 </r>
       <r>   15.2353    0.0000 </r>
       <r>   15.8388    0.0000 </r>
       <r>   15.8388    0.0000 </r>
       <r>   16.2299    0.0000 </r>
       <r>   16.6679    0.0000 </r>
       <r>   16.6679    0.0000 </r>
       <r>   23.5916    0.0000 </r>
       <r>   24.7489    0.0000 </r>
       <r>   26.2681    0.0000 </r>
       <r>   26.2681    0.0000 </r>
       <r>   26.3334    0.0000 </r>
       <r>   26.3334    0.0000 </r>
       <r>   29.5236    0.0000 </r>
       <r>   30.7663    0.0000 </r>
       <r>   31.2327    0.0000 </r>
       <r>   31.2327    0.0000 </r>
       <r>   32.2907    0.0000 </r>
       <r>   32.2907    0.0000 </r>
       <r>   33.0089    0.0000 </r>
       <r>   36.1301    0.0000 </r>
       <r>   36.1301    0.0000 </r>
       <r>   36.2762    0.0000 </r>
       <r>   36.2762    0.0000 </r>
       <r>   37.2366    0.0000 </r>
       <r>   38.2769    0.0000 </r>
       <r>   38.4577    0.0000 </r>
       <r>   43.4511    0.0000 </r>
       <r>   43.4511    0.0000 </r>
       <r>   43.9510    0.0000 </r>
       <r>   45.0130    0.0000 </r>
       <r>   45.0130    0.0000 </r>
       <r>   45.9719    0.0000 </r>
       <r>   49.4156    0.0000 </r>
       <r>   49.4157    0.0000 </r>
       <r>   50.6269    0.0000 </r>
       <r>   50.6269    0.0000 </r>
       <r>   51.4850    0.0000 </r>
       <r>   53.6205    0.0000 </r>
       <r>   53.9270    0.0000 </r>
       <r>   53.9463    0.0000 </r>
       <r>   55.4298    0.0000 </r>
       <r>   55.4879    0.0000 </r>
       <r>   56.2160    0.0000 </r>
       <r>   57.2038    0.0000 </r>
       <r>   58.2827    0.0000 </r>
       <r>   60.3668    0.0000 </r>
      </set>
      <set comment="kpoint 4">
       <r>   -9.4680    1.0000 </r>
       <r>   -1.4116    1.0000 </r>
       <r>    1.3044    1.0000 </r>
       <r>    1.3044    1.0000 </r>
       <r>    5.1216    0.0000 </r>
       <r>    7.0828    0.0000 </r>
       <r>   10.3301    0.0000 </r>
       <r>   10.3301    0.0000 </r>
       <r>   11.6220    0.0000 </r>
       <r>   14.7780    0.0000 </r>
       <r>   14.8067    0.0000 </r>
       <r>   17.3911    0.0000 </r>
       <r>   17.3911    0.0000 </r>
       <r>   18.0140    0.0000 </r>
       <r>   22.2452    0.0000 </r>
       <r>   22.2452    0.0000 </r>
       <r>   23.4552    0.0000 </r>
       <r>   24.5320    0.0000 </r>
       <r>   25.1826    0.0000 </r>
       <r>   30.1345    0.0000 </r>
       <r>   31.6619    0.0000 </r>
       <r>   31.7728    0.0000 </r>
       <r>   31.7728    0.0000 </r>
       <r>   32.8479    0.0000 </r>
       <r>   32.8479    0.0000 </r>
       <r>   33.8147    0.0000 </r>
       <r>   34.4443    0.0000 </r>
       <r>   37.7712    0.0000 </r>
       <r>   38.9196    0.0000 </r>
       <r>   39.0625    0.0000 </r>
       <r>   39.0625    0.0000 </r>
       <r>   39.9892    0.0000 </r>
       <r>   39.9892    0.0000 </r>
       <r>   40.8242    0.0000 </r>
       <r>   42.3998    0.0000 </r>
       <r>   42.3998    0.0000 </r>
       <r>   42.8994    0.0000 </r>
       <r>   43.1088    0.0000 </r>
       <r>   43.7258    0.0000 </r>
       <r>   45.7066    0.0000 </r>
       <r>   46.0140    0.0000 </r>
       <r>   46.0140    0.0000 </r>
       <r>   47.8216    0.0000 </r>
       <r>   50.1481    0.0000 </r>
       <r>   50.1482    0.0000 </r>
       <r>   50.4544    0.0000 </r>
       <r>   50.6296    0.0000 </r>
       <r>   51.9333    0.0000 </r>
       <r>   51.9336    0.0000 </r>
       <r>   52.1051    0.0000 </r>
       <r>   53.2697    0.0000 </r>
       <r>   53.6098    0.0000 </r>
       <r>   56.9761    0.0000 </r>
       <r>   58.1969    0.0000 </r>
      </set>
      <set comment="kpoint 5">
       <r>   -7.7821    1.0000 </r>
       <r>   -4.5107    1.0000 </r>
       <r>   -0.5230    1.0000 </r>
       <r>    0.8876    1.0000 </r>
       <r>    5.5706    0.0000 </r>
       <r>    8.6709    0.0000 </r>
       <r>    9.8246    0.0000 </r>
       <r>   10.6769    0.0000 </r>
       <r>   14.6559    0.0000 </r>
       <r>   15.8558    0.0000 </r>
       <r>   16.5515    0.0000 </r>
       <r>   17.0202    0.0000 </r>
       <r>   17.7562    0.0000 </r>
       <r>   21.3503    0.0000 </r>
       <r>   22.3863    0.0000 </r>
       <r>   23.6488    0.0000 </r>
       <r>   24.0751    0.0000 </r>
       <r>   24.1314    0.0000 </r>
       <r>   24.5494    0.0000 </r>
       <r>   26.5327    0.0000 </r>
       <r>   28.5579    0.0000 </r>
       <r>   29.0704    0.0000 </r>
       <r>   29.8090    0.0000 </r>
       <r>   31.2953    0.0000 </r>
       <r>   32.5293    0.0000 </r>
       <r>   33.0527    0.0000 </r>
       <r>   33.0796    0.0000 </r>
       <r>   34.1837    0.0000 </r>
       <r>   35.5596    0.0000 </r>
       <r>   37.4943    0.0000 </r>
       <r>   38.0801    0.0000 </r>
       <r>   39.5504    0.0000 </r>
       <r>   40.3055    0.0000 </r>
       <r>   40.4937    0.0000 </r>
       <r>   40.9297    0.0000 </r>
       <r>   43.7536    0.0000 </r>
       <r>   45.5323    0.0000 </r>
       <r>   46.0967    0.0000 </r>
       <r>   47.0025    0.0000 </r>
       <r>   47.1014    0.0000 </r>
       <r>   47.1376    0.0000 </r>
       <r>   48.3661    0.0000 </r>
       <r>   48.6428    0.0000 </r>
       <r>   50.1376    0.0000 </r>
       <r>   50.8787    0.0000 </r>
       <r>   51.6111    0.0000 </r>
       <r>   52.5771    0.0000 </r>
       <r>   53.1661    0.0000 </r>
       <r>   55.0582    0.0000 </r>
       <r>   55.9892    0.0000 </r>
       <r>   56.8464    0.0000 </r>
       <r>   57.1456    0.0000 </r>
       <r>   57.8604    0.0000 </r>
       <r>   59.9101    0.0000 </r>
      </set>
      <set comment="kpoint 6">
       <r>   -8.4799    1.0000 </r>
       <r>   -3.5283    1.0000 </r>
       <r>   -0.6893    1.0000 </r>
       <r>    1.8905    1.0000 </r>
       <r>    6.2653    0.0000 </r>
       <r>    9.2187    0.0000 </r>
       <r>    9.5105    0.0000 </r>
       <r>    9.7994    0.0000 </r>
       <r>   11.8723    0.0000 </r>
       <r>   14.1004    0.0000 </r>
       <r>   16.6106    0.0000 </r>
       <r>   17.1307    0.0000 </r>
       <r>   18.3735    0.0000 </r>
       <r>   20.9640    0.0000 </r>
       <r>   22.6311    0.0000 </r>
       <r>   23.2821    0.0000 </r>
       <r>   23.6244    0.0000 </r>
       <r>   25.4268    0.0000 </r>
       <r>   26.1991    0.0000 </r>
       <r>   27.7646    0.0000 </r>
       <r>   28.5561    0.0000 </r>
       <r>   29.6309    0.0000 </r>
       <r>   30.4077    0.0000 </r>
       <r>   30.5512    0.0000 </r>
       <r>   32.4846    0.0000 </r>
       <r>   32.5638    0.0000 </r>
       <r>   34.2271    0.0000 </r>
       <r>   34.4454    0.0000 </r>
       <r>   38.2424    0.0000 </r>
       <r>   38.7332    0.0000 </r>
       <r>   39.0620    0.0000 </r>
       <r>   39.3027    0.0000 </r>
       <r>   40.1794    0.0000 </r>
       <r>   40.5729    0.0000 </r>
       <r>   40.6669    0.0000 </r>
       <r>   40.7466    0.0000 </r>
       <r>   40.8777    0.0000 </r>
       <r>   45.2389    0.0000 </r>
       <r>   46.2482    0.0000 </r>
       <r>   47.5989    0.0000 </r>
       <r>   48.0092    0.0000 </r>
       <r>   48.2744    0.0000 </r>
       <r>   50.8290    0.0000 </r>
       <r>   51.1834    0.0000 </r>
       <r>   52.0291    0.0000 </r>
       <r>   52.5427    0.0000 </r>
       <r>   52.5663    0.0000 </r>
       <r>   53.1705    0.0000 </r>
       <r>   53.7287    0.0000 </r>
       <r>   54.7366    0.0000 </r>
       <r>   55.4232    0.0000 </r>
       <r>   57.2590    0.0000 </r>
       <r>   58.0415    0.0000 </r>
       <r>   58.8106    0.0000 </r>
      </set>
      <set comment="kpoint 7">
       <r>   -6.2096    1.0000 </r>
       <r>   -6.2096    1.0000 </r>
       <r>    0.1317    1.0000 </r>
       <r>    0.1317    1.0000 </r>
       <r>    4.8294    0.0000 </r>
       <r>    4.8294    0.0000 </r>
       <r>   14.4339    0.0000 </r>
       <r>   14.4339    0.0000 </r>
       <r>   16.5737    0.0000 </r>
       <r>   16.5737    0.0000 </r>
       <r>   17.0775    0.0000 </r>
       <r>   17.0775    0.0000 </r>
       <r>   18.0529    0.0000 </r>
       <r>   18.0529    0.0000 </r>
       <r>   23.6223    0.0000 </r>
       <r>   23.6223    0.0000 </r>
       <r>   23.6602    0.0000 </r>
       <r>   23.6602    0.0000 </r>
       <r>   23.7592    0.0000 </r>
       <r>   23.7592    0.0000 </r>
       <r>   24.4734    0.0000 </r>
       <r>   24.4734    0.0000 </r>
       <r>   31.8159    0.0000 </r>
       <r>   31.8159    0.0000 </r>
       <r>   33.5877    0.0000 </r>
       <r>   33.5877    0.0000 </r>
       <r>   36.8656    0.0000 </r>
       <r>   36.8656    0.0000 </r>
       <r>   37.2657    0.0000 </r>
       <r>   37.2657    0.0000 </r>
       <r>   39.7273    0.0000 </r>
       <r>   39.7273    0.0000 </r>
       <r>   39.7442    0.0000 </r>
       <r>   39.7442    0.0000 </r>
       <r>   41.2862    0.0000 </r>
       <r>   41.2862    0.0000 </r>
       <r>   43.4493    0.0000 </r>
       <r>   43.4493    0.0000 </r>
       <r>   43.8343    0.0000 </r>
       <r>   43.8343    0.0000 </r>
       <r>   48.0897    0.0000 </r>
       <r>   48.0897    0.0000 </r>
       <r>   51.1928    0.0000 </r>
       <r>   51.1929    0.0000 </r>
       <r>   51.7989    0.0000 </r>
       <r>   51.7999    0.0000 </r>
       <r>   56.1891    0.0000 </r>
       <r>   56.3585    0.0000 </r>
       <r>   57.6267    0.0000 </r>
       <r>   58.2576    0.0000 </r>
       <r>   58.3621    0.0000 </r>
       <r>   58.6151    0.0000 </r>
       <r>   58.9802    0.0000 </r>
       <r>   59.5251    0.0000 </r>
      </set>
      <set comment="kpoint 8">
       <r>   -6.0933    1.0000 </r>
       <r>   -6.0933    1.0000 </r>
       <r>   -0.7574    1.0000 </r>
       <r>   -0.7574    1.0000 </r>
       <r>    8.8370    0.0000 </r>
       <r>    8.8370    0.0000 </r>
       <r>    8.9543    0.0000 </r>
       <r>    8.9543    0.0000 </r>
       <r>   15.7382    0.0000 </r>
       <r>   15.7382    0.0000 </r>
       <r>   17.6177    0.0000 </r>
       <r>   17.6177    0.0000 </r>
       <r>   20.9066    0.0000 </r>
       <r>   20.9066    0.0000 </r>
       <r>   21.8486    0.0000 </r>
       <r>   21.8486    0.0000 </r>
       <r>   24.4174    0.0000 </r>
       <r>   24.4174    0.0000 </r>
       <r>   25.5669    0.0000 </r>
       <r>   25.5669    0.0000 </r>
       <r>   27.9711    0.0000 </r>
       <r>   27.9711    0.0000 </r>
       <r>   30.6842    0.0000 </r>
       <r>   30.6842    0.0000 </r>
       <r>   30.7605    0.0000 </r>
       <r>   30.7605    0.0000 </r>
       <r>   31.5760    0.0000 </r>
       <r>   31.5760    0.0000 </r>
       <r>   37.3113    0.0000 </r>
       <r>   37.3113    0.0000 </r>
       <r>   39.1973    0.0000 </r>
       <r>   39.1973    0.0000 </r>
       <r>   41.2510    0.0000 </r>
       <r>   41.2510    0.0000 </r>
       <r>   43.1133    0.0000 </r>
       <r>   43.1133    0.0000 </r>
       <r>   46.0463    0.0000 </r>
       <r>   46.0463    0.0000 </r>
       <r>   46.9981    0.0000 </r>
       <r>   46.9981    0.0000 </r>
       <r>   49.2798    0.0000 </r>
       <r>   49.2799    0.0000 </r>
       <r>   49.4650    0.0000 </r>
       <r>   49.4651    0.0000 </r>
       <r>   50.6877    0.0000 </r>
       <r>   50.6879    0.0000 </r>
       <r>   53.1871    0.0000 </r>
       <r>   53.1911    0.0000 </r>
       <r>   56.8665    0.0000 </r>
       <r>   56.8888    0.0000 </r>
       <r>   56.9101    0.0000 </r>
       <r>   57.9804    0.0000 </r>
       <r>   58.3330    0.0000 </r>
       <r>   59.6711    0.0000 </r>
      </set>
      <set comment="kpoint 9">
       <r>   -8.2429    1.0000 </r>
       <r>   -4.8093    1.0000 </r>
       <r>    1.9927    1.0000 </r>
       <r>    2.0014    1.0000 </r>
       <r>    4.4652    0.0000 </r>
       <r>    7.9978    0.0000 </r>
       <r>    8.0008    0.0000 </r>
       <r>   11.4939    0.0000 </r>
       <r>   15.2574    0.0000 </r>
       <r>   15.8427    0.0000 </r>
       <r>   15.8779    0.0000 </r>
       <r>   16.2117    0.0000 </r>
       <r>   16.6239    0.0000 </r>
       <r>   16.6659    0.0000 </r>
       <r>   23.6091    0.0000 </r>
       <r>   24.7381    0.0000 </r>
       <r>   26.2802    0.0000 </r>
       <r>   26.2971    0.0000 </r>
       <r>   26.3114    0.0000 </r>
       <r>   26.3235    0.0000 </r>
       <r>   29.5429    0.0000 </r>
       <r>   30.7552    0.0000 </r>
       <r>   31.2805    0.0000 </r>
       <r>   31.5137    0.0000 </r>
       <r>   32.3112    0.0000 </r>
       <r>   32.4751    0.0000 </r>
       <r>   33.2200    0.0000 </r>
       <r>   36.1722    0.0000 </r>
       <r>   36.2735    0.0000 </r>
       <r>   36.8155    0.0000 </r>
       <r>   36.8748    0.0000 </r>
       <r>   37.2240    0.0000 </r>
       <r>   38.8781    0.0000 </r>
       <r>   41.5956    0.0000 </r>
       <r>   43.6173    0.0000 </r>
       <r>   45.1011    0.0000 </r>
       <r>   45.8727    0.0000 </r>
       <r>   49.0652    0.0000 </r>
       <r>   49.1621    0.0000 </r>
       <r>   49.9757    0.0000 </r>
       <r>   52.5247    0.0000 </r>
       <r>   54.0075    0.0000 </r>
       <r>   54.4091    0.0000 </r>
       <r>   55.9434    0.0000 </r>
       <r>   56.6362    0.0000 </r>
       <r>   57.0587    0.0000 </r>
       <r>   60.2654    0.0000 </r>
       <r>   62.1470    0.0000 </r>
       <r>   62.5784    0.0000 </r>
       <r>   65.8956    0.0000 </r>
       <r>   66.9539    0.0000 </r>
       <r>   67.1259    0.0000 </r>
       <r>   73.2233    0.0000 </r>
       <r>   75.1107    0.0000 </r>
      </set>
      <set comment="kpoint 10">
       <r>   -8.2483    1.0000 </r>
       <r>   -4.8008    1.0000 </r>
       <r>    1.9937    1.0000 </r>
       <r>    2.0024    1.0000 </r>
       <r>    4.4662    0.0000 </r>
       <r>    7.9974    0.0000 </r>
       <r>    8.0022    0.0000 </r>
       <r>   11.4954    0.0000 </r>
       <r>   15.2110    0.0000 </r>
       <r>   15.7886    0.0000 </r>
       <r>   15.7956    0.0000 </r>
       <r>   16.2770    0.0000 </r>
       <r>   16.6923    0.0000 </r>
       <r>   16.7204    0.0000 </r>
       <r>   23.5214    0.0000 </r>
       <r>   24.8302    0.0000 </r>
       <r>   25.9973    0.0000 </r>
       <r>   25.9977    0.0000 </r>
       <r>   26.6085    0.0000 </r>
       <r>   26.6121    0.0000 </r>
       <r>   29.4548    0.0000 </r>
       <r>   30.8512    0.0000 </r>
       <r>   31.2706    0.0000 </r>
       <r>   31.5083    0.0000 </r>
       <r>   32.3024    0.0000 </r>
       <r>   32.4686    0.0000 </r>
       <r>   33.1808    0.0000 </r>
       <r>   36.1579    0.0000 </r>
       <r>   36.3050    0.0000 </r>
       <r>   36.8499    0.0000 </r>
       <r>   36.8605    0.0000 </r>
       <r>   37.1669    0.0000 </r>
       <r>   38.9571    0.0000 </r>
       <r>   41.6267    0.0000 </r>
       <r>   43.6161    0.0000 </r>
       <r>   45.0946    0.0000 </r>
       <r>   45.8822    0.0000 </r>
       <r>   48.8285    0.0000 </r>
       <r>   48.9979    0.0000 </r>
       <r>   50.1013    0.0000 </r>
       <r>   52.2057    0.0000 </r>
       <r>   54.1598    0.0000 </r>
       <r>   54.4018    0.0000 </r>
       <r>   55.7038    0.0000 </r>
       <r>   56.7301    0.0000 </r>
       <r>   56.9048    0.0000 </r>
       <r>   59.9003    0.0000 </r>
       <r>   61.9509    0.0000 </r>
       <r>   62.5331    0.0000 </r>
       <r>   65.8117    0.0000 </r>
       <r>   66.8443    0.0000 </r>
       <r>   66.9842    0.0000 </r>
       <r>   73.3366    0.0000 </r>
       <r>   75.2108    0.0000 </r>
      </set>
      <set comment="kpoint 11">
       <r>   -8.2646    1.0000 </r>
       <r>   -4.7755    1.0000 </r>
       <r>    1.9968    1.0000 </r>
       <r>    2.0055    1.0000 </r>
       <r>    4.4690    0.0000 </r>
       <r>    7.9988    0.0000 </r>
       <r>    8.0039    0.0000 </r>
       <r>   11.4999    0.0000 </r>
       <r>   15.0876    0.0000 </r>
       <r>   15.6519    0.0000 </r>
       <r>   15.6573    0.0000 </r>
       <r>   16.4054    0.0000 </r>
       <r>   16.8403    0.0000 </r>
       <r>   16.8582    0.0000 </r>
       <r>   23.3214    0.0000 </r>
       <r>   25.0432    0.0000 </r>
       <r>   25.6972    0.0000 </r>
       <r>   25.6973    0.0000 </r>
       <r>   26.9132    0.0000 </r>
       <r>   26.9173    0.0000 </r>
       <r>   29.2534    0.0000 </r>
       <r>   31.1472    0.0000 </r>
       <r>   31.1828    0.0000 </r>
       <r>   31.4892    0.0000 </r>
       <r>   32.2890    0.0000 </r>
       <r>   32.4573    0.0000 </r>
       <r>   33.1339    0.0000 </r>
       <r>   36.1549    0.0000 </r>
       <r>   36.3418    0.0000 </r>
       <r>   36.8495    0.0000 </r>
       <r>   36.8905    0.0000 </r>
       <r>   37.1119    0.0000 </r>
       <r>   39.0385    0.0000 </r>
       <r>   41.6210    0.0000 </r>
       <r>   43.6133    0.0000 </r>
       <r>   45.0846    0.0000 </r>
       <r>   45.8515    0.0000 </r>
       <r>   48.5278    0.0000 </r>
       <r>   48.8493    0.0000 </r>
       <r>   50.2084    0.0000 </r>
       <r>   51.9127    0.0000 </r>
       <r>   54.3153    0.0000 </r>
       <r>   54.3618    0.0000 </r>
       <r>   55.4329    0.0000 </r>
       <r>   56.5815    0.0000 </r>
       <r>   56.8230    0.0000 </r>
       <r>   59.4736    0.0000 </r>
       <r>   61.6614    0.0000 </r>
       <r>   62.3655    0.0000 </r>
       <r>   65.7612    0.0000 </r>
       <r>   66.5575    0.0000 </r>
       <r>   66.9856    0.0000 </r>
       <r>   73.2520    0.0000 </r>
       <r>   75.2947    0.0000 </r>
      </set>
      <set comment="kpoint 12">
       <r>   -8.2911    1.0000 </r>
       <r>   -4.7338    1.0000 </r>
       <r>    2.0019    1.0000 </r>
       <r>    2.0106    1.0000 </r>
       <r>    4.4737    0.0000 </r>
       <r>    8.0014    0.0000 </r>
       <r>    8.0063    0.0000 </r>
       <r>   11.5073    0.0000 </r>
       <r>   14.9208    0.0000 </r>
       <r>   15.4815    0.0000 </r>
       <r>   15.4920    0.0000 </r>
       <r>   16.5662    0.0000 </r>
       <r>   17.0265    0.0000 </r>
       <r>   17.0395    0.0000 </r>
       <r>   23.0743    0.0000 </r>
       <r>   25.3141    0.0000 </r>
       <r>   25.3961    0.0000 </r>
       <r>   25.3984    0.0000 </r>
       <r>   27.2195    0.0000 </r>
       <r>   27.2236    0.0000 </r>
       <r>   28.9996    0.0000 </r>
       <r>   31.2669    0.0000 </r>
       <r>   31.3453    0.0000 </r>
       <r>   31.4463    0.0000 </r>
       <r>   32.2720    0.0000 </r>
       <r>   32.4397    0.0000 </r>
       <r>   33.0756    0.0000 </r>
       <r>   36.1613    0.0000 </r>
       <r>   36.3856    0.0000 </r>
       <r>   36.8367    0.0000 </r>
       <r>   36.9298    0.0000 </r>
       <r>   37.0549    0.0000 </r>
       <r>   39.0916    0.0000 </r>
       <r>   41.5971    0.0000 </r>
       <r>   43.6171    0.0000 </r>
       <r>   45.0771    0.0000 </r>
       <r>   45.8084    0.0000 </r>
       <r>   48.2308    0.0000 </r>
       <r>   48.6600    0.0000 </r>
       <r>   50.2096    0.0000 </r>
       <r>   51.6105    0.0000 </r>
       <r>   54.1908    0.0000 </r>
       <r>   54.4374    0.0000 </r>
       <r>   55.1284    0.0000 </r>
       <r>   56.4303    0.0000 </r>
       <r>   56.8627    0.0000 </r>
       <r>   58.9947    0.0000 </r>
       <r>   61.5959    0.0000 </r>
       <r>   62.1548    0.0000 </r>
       <r>   65.7413    0.0000 </r>
       <r>   66.3951    0.0000 </r>
       <r>   67.0248    0.0000 </r>
       <r>   73.4023    0.0000 </r>
       <r>   75.4229    0.0000 </r>
      </set>
      <set comment="kpoint 13">
       <r>   -8.3272    1.0000 </r>
       <r>   -4.6765    1.0000 </r>
       <r>    2.0086    1.0000 </r>
       <r>    2.0148    1.0000 </r>
       <r>    4.4829    0.0000 </r>
       <r>    8.0057    0.0000 </r>
       <r>    8.0094    0.0000 </r>
       <r>   11.5177    0.0000 </r>
       <r>   14.7311    0.0000 </r>
       <r>   15.3011    0.0000 </r>
       <r>   15.3132    0.0000 </r>
       <r>   16.7405    0.0000 </r>
       <r>   17.2325    0.0000 </r>
       <r>   17.2431    0.0000 </r>
       <r>   22.8115    0.0000 </r>
       <r>   25.1016    0.0000 </r>
       <r>   25.1023    0.0000 </r>
       <r>   25.6040    0.0000 </r>
       <r>   27.5265    0.0000 </r>
       <r>   27.5308    0.0000 </r>
       <r>   28.7245    0.0000 </r>
       <r>   31.2592    0.0000 </r>
       <r>   31.4698    0.0000 </r>
       <r>   31.5914    0.0000 </r>
       <r>   32.2511    0.0000 </r>
       <r>   32.4185    0.0000 </r>
       <r>   33.0223    0.0000 </r>
       <r>   36.1761    0.0000 </r>
       <r>   36.4362    0.0000 </r>
       <r>   36.8337    0.0000 </r>
       <r>   36.9918    0.0000 </r>
       <r>   37.0017    0.0000 </r>
       <r>   39.1711    0.0000 </r>
       <r>   41.6066    0.0000 </r>
       <r>   43.6194    0.0000 </r>
       <r>   45.0610    0.0000 </r>
       <r>   45.7646    0.0000 </r>
       <r>   47.9010    0.0000 </r>
       <r>   48.4466    0.0000 </r>
       <r>   50.2508    0.0000 </r>
       <r>   51.2388    0.0000 </r>
       <r>   54.1033    0.0000 </r>
       <r>   54.5449    0.0000 </r>
       <r>   54.9489    0.0000 </r>
       <r>   56.1760    0.0000 </r>
       <r>   56.9657    0.0000 </r>
       <r>   58.5910    0.0000 </r>
       <r>   61.4796    0.0000 </r>
       <r>   61.9707    0.0000 </r>
       <r>   65.6750    0.0000 </r>
       <r>   66.3972    0.0000 </r>
       <r>   67.0412    0.0000 </r>
       <r>   73.5037    0.0000 </r>
       <r>   75.5956    0.0000 </r>
      </set>
      <set comment="kpoint 14">
       <r>   -8.3718    1.0000 </r>
       <r>   -4.6045    1.0000 </r>
       <r>    2.0178    1.0000 </r>
       <r>    2.0241    1.0000 </r>
       <r>    4.4913    0.0000 </r>
       <r>    8.0100    0.0000 </r>
       <r>    8.0136    0.0000 </r>
       <r>   11.5308    0.0000 </r>
       <r>   14.5299    0.0000 </r>
       <r>   15.1170    0.0000 </r>
       <r>   15.1297    0.0000 </r>
       <r>   16.9177    0.0000 </r>
       <r>   17.4503    0.0000 </r>
       <r>   17.4595    0.0000 </r>
       <r>   22.5470    0.0000 </r>
       <r>   24.8073    0.0000 </r>
       <r>   24.8081    0.0000 </r>
       <r>   25.9055    0.0000 </r>
       <r>   27.8334    0.0000 </r>
       <r>   27.8381    0.0000 </r>
       <r>   28.4439    0.0000 </r>
       <r>   31.2491    0.0000 </r>
       <r>   31.4639    0.0000 </r>
       <r>   31.8860    0.0000 </r>
       <r>   32.2265    0.0000 </r>
       <r>   32.3969    0.0000 </r>
       <r>   32.9849    0.0000 </r>
       <r>   36.1989    0.0000 </r>
       <r>   36.4936    0.0000 </r>
       <r>   36.8483    0.0000 </r>
       <r>   36.9469    0.0000 </r>
       <r>   37.0620    0.0000 </r>
       <r>   39.3154    0.0000 </r>
       <r>   41.6663    0.0000 </r>
       <r>   43.6180    0.0000 </r>
       <r>   45.0553    0.0000 </r>
       <r>   45.7331    0.0000 </r>
       <r>   47.6089    0.0000 </r>
       <r>   48.2136    0.0000 </r>
       <r>   50.3265    0.0000 </r>
       <r>   50.8261    0.0000 </r>
       <r>   54.0062    0.0000 </r>
       <r>   54.6104    0.0000 </r>
       <r>   54.8588    0.0000 </r>
       <r>   55.9612    0.0000 </r>
       <r>   57.0833    0.0000 </r>
       <r>   58.2169    0.0000 </r>
       <r>   61.3420    0.0000 </r>
       <r>   61.7973    0.0000 </r>
       <r>   65.5673    0.0000 </r>
       <r>   66.3797    0.0000 </r>
       <r>   66.9304    0.0000 </r>
       <r>   73.5899    0.0000 </r>
       <r>   75.7381    0.0000 </r>
      </set>
      <set comment="kpoint 15">
       <r>   -8.4239    1.0000 </r>
       <r>   -4.5190    1.0000 </r>
       <r>    2.0291    1.0000 </r>
       <r>    2.0354    1.0000 </r>
       <r>    4.5016    0.0000 </r>
       <r>    8.0150    0.0000 </r>
       <r>    8.0185    0.0000 </r>
       <r>   11.5465    0.0000 </r>
       <r>   14.3223    0.0000 </r>
       <r>   14.9329    0.0000 </r>
       <r>   14.9457    0.0000 </r>
       <r>   17.0908    0.0000 </r>
       <r>   17.6762    0.0000 </r>
       <r>   17.6843    0.0000 </r>
       <r>   22.2891    0.0000 </r>
       <r>   24.5154    0.0000 </r>
       <r>   24.5164    0.0000 </r>
       <r>   26.2045    0.0000 </r>
       <r>   28.1389    0.0000 </r>
       <r>   28.1445    0.0000 </r>
       <r>   28.1698    0.0000 </r>
       <r>   31.2384    0.0000 </r>
       <r>   31.4423    0.0000 </r>
       <r>   32.1806    0.0000 </r>
       <r>   32.2005    0.0000 </r>
       <r>   32.3735    0.0000 </r>
       <r>   32.9166    0.0000 </r>
       <r>   36.2303    0.0000 </r>
       <r>   36.5566    0.0000 </r>
       <r>   36.8719    0.0000 </r>
       <r>   36.9148    0.0000 </r>
       <r>   37.1302    0.0000 </r>
       <r>   39.4472    0.0000 </r>
       <r>   41.6600    0.0000 </r>
       <r>   43.6180    0.0000 </r>
       <r>   45.0647    0.0000 </r>
       <r>   45.6993    0.0000 </r>
       <r>   47.3095    0.0000 </r>
       <r>   48.2723    0.0000 </r>
       <r>   50.3998    0.0000 </r>
       <r>   50.4510    0.0000 </r>
       <r>   54.2400    0.0000 </r>
       <r>   54.3115    0.0000 </r>
       <r>   54.8794    0.0000 </r>
       <r>   55.7205    0.0000 </r>
       <r>   57.1279    0.0000 </r>
       <r>   57.9428    0.0000 </r>
       <r>   61.2339    0.0000 </r>
       <r>   61.5378    0.0000 </r>
       <r>   65.4616    0.0000 </r>
       <r>   66.4018    0.0000 </r>
       <r>   66.7747    0.0000 </r>
       <r>   73.6724    0.0000 </r>
       <r>   75.8825    0.0000 </r>
      </set>
      <set comment="kpoint 16">
       <r>   -8.4825    1.0000 </r>
       <r>   -4.4209    1.0000 </r>
       <r>    2.0425    1.0000 </r>
       <r>    2.0487    1.0000 </r>
       <r>    4.5137    0.0000 </r>
       <r>    8.0206    0.0000 </r>
       <r>    8.0240    0.0000 </r>
       <r>   11.5646    0.0000 </r>
       <r>   14.1114    0.0000 </r>
       <r>   14.7509    0.0000 </r>
       <r>   14.7633    0.0000 </r>
       <r>   17.2541    0.0000 </r>
       <r>   17.9082    0.0000 </r>
       <r>   17.9152    0.0000 </r>
       <r>   22.0441    0.0000 </r>
       <r>   24.2262    0.0000 </r>
       <r>   24.2273    0.0000 </r>
       <r>   26.4830    0.0000 </r>
       <r>   27.9200    0.0000 </r>
       <r>   28.4428    0.0000 </r>
       <r>   28.4488    0.0000 </r>
       <r>   31.2287    0.0000 </r>
       <r>   31.4348    0.0000 </r>
       <r>   32.1777    0.0000 </r>
       <r>   32.3522    0.0000 </r>
       <r>   32.4666    0.0000 </r>
       <r>   32.8771    0.0000 </r>
       <r>   36.2698    0.0000 </r>
       <r>   36.6269    0.0000 </r>
       <r>   36.8917    0.0000 </r>
       <r>   36.8984    0.0000 </r>
       <r>   37.2090    0.0000 </r>
       <r>   39.6447    0.0000 </r>
       <r>   41.7677    0.0000 </r>
       <r>   43.6160    0.0000 </r>
       <r>   45.0749    0.0000 </r>
       <r>   45.6430    0.0000 </r>
       <r>   47.0039    0.0000 </r>
       <r>   48.2458    0.0000 </r>
       <r>   50.0546    0.0000 </r>
       <r>   50.5690    0.0000 </r>
       <r>   53.8974    0.0000 </r>
       <r>   54.5452    0.0000 </r>
       <r>   54.9588    0.0000 </r>
       <r>   55.5496    0.0000 </r>
       <r>   57.1157    0.0000 </r>
       <r>   57.7028    0.0000 </r>
       <r>   61.0667    0.0000 </r>
       <r>   61.2770    0.0000 </r>
       <r>   65.3179    0.0000 </r>
       <r>   66.3608    0.0000 </r>
       <r>   66.6262    0.0000 </r>
       <r>   73.7203    0.0000 </r>
       <r>   76.0023    0.0000 </r>
      </set>
      <set comment="kpoint 17">
       <r>   -8.5465    1.0000 </r>
       <r>   -4.3115    1.0000 </r>
       <r>    2.0578    1.0000 </r>
       <r>    2.0641    1.0000 </r>
       <r>    4.5277    0.0000 </r>
       <r>    8.0266    0.0000 </r>
       <r>    8.0299    0.0000 </r>
       <r>   11.5850    0.0000 </r>
       <r>   13.8992    0.0000 </r>
       <r>   14.5720    0.0000 </r>
       <r>   14.5839    0.0000 </r>
       <r>   17.4019    0.0000 </r>
       <r>   18.1451    0.0000 </r>
       <r>   18.1510    0.0000 </r>
       <r>   21.8179    0.0000 </r>
       <r>   23.9398    0.0000 </r>
       <r>   23.9410    0.0000 </r>
       <r>   26.6956    0.0000 </r>
       <r>   27.7402    0.0000 </r>
       <r>   28.7424    0.0000 </r>
       <r>   28.7491    0.0000 </r>
       <r>   31.2210    0.0000 </r>
       <r>   31.4234    0.0000 </r>
       <r>   32.1484    0.0000 </r>
       <r>   32.3309    0.0000 </r>
       <r>   32.7373    0.0000 </r>
       <r>   32.8285    0.0000 </r>
       <r>   36.3169    0.0000 </r>
       <r>   36.7013    0.0000 </r>
       <r>   36.8981    0.0000 </r>
       <r>   36.9258    0.0000 </r>
       <r>   37.2741    0.0000 </r>
       <r>   39.7955    0.0000 </r>
       <r>   41.7916    0.0000 </r>
       <r>   43.6203    0.0000 </r>
       <r>   45.0699    0.0000 </r>
       <r>   45.5074    0.0000 </r>
       <r>   46.6736    0.0000 </r>
       <r>   48.2011    0.0000 </r>
       <r>   49.7797    0.0000 </r>
       <r>   50.4773    0.0000 </r>
       <r>   53.6572    0.0000 </r>
       <r>   54.4864    0.0000 </r>
       <r>   54.9615    0.0000 </r>
       <r>   55.4637    0.0000 </r>
       <r>   57.0231    0.0000 </r>
       <r>   57.6505    0.0000 </r>
       <r>   60.9441    0.0000 </r>
       <r>   60.9689    0.0000 </r>
       <r>   65.2193    0.0000 </r>
       <r>   66.3724    0.0000 </r>
       <r>   66.5912    0.0000 </r>
       <r>   73.7873    0.0000 </r>
       <r>   76.1612    0.0000 </r>
      </set>
      <set comment="kpoint 18">
       <r>   -8.6148    1.0000 </r>
       <r>   -4.1917    1.0000 </r>
       <r>    2.0752    1.0000 </r>
       <r>    2.0815    1.0000 </r>
       <r>    4.5435    0.0000 </r>
       <r>    8.0328    0.0000 </r>
       <r>    8.0361    0.0000 </r>
       <r>   11.6071    0.0000 </r>
       <r>   13.6870    0.0000 </r>
       <r>   14.3971    0.0000 </r>
       <r>   14.4084    0.0000 </r>
       <r>   17.5280    0.0000 </r>
       <r>   18.3860    0.0000 </r>
       <r>   18.3907    0.0000 </r>
       <r>   21.6171    0.0000 </r>
       <r>   23.6564    0.0000 </r>
       <r>   23.6577    0.0000 </r>
       <r>   26.7409    0.0000 </r>
       <r>   27.7315    0.0000 </r>
       <r>   29.0352    0.0000 </r>
       <r>   29.0428    0.0000 </r>
       <r>   31.2167    0.0000 </r>
       <r>   31.4166    0.0000 </r>
       <r>   32.1195    0.0000 </r>
       <r>   32.2980    0.0000 </r>
       <r>   32.8038    0.0000 </r>
       <r>   32.9777    0.0000 </r>
       <r>   36.3721    0.0000 </r>
       <r>   36.7807    0.0000 </r>
       <r>   36.8996    0.0000 </r>
       <r>   37.0238    0.0000 </r>
       <r>   37.2966    0.0000 </r>
       <r>   39.9534    0.0000 </r>
       <r>   41.7890    0.0000 </r>
       <r>   43.6311    0.0000 </r>
       <r>   45.0316    0.0000 </r>
       <r>   45.3677    0.0000 </r>
       <r>   46.3754    0.0000 </r>
       <r>   48.1920    0.0000 </r>
       <r>   49.6507    0.0000 </r>
       <r>   50.2579    0.0000 </r>
       <r>   53.4557    0.0000 </r>
       <r>   54.3183    0.0000 </r>
       <r>   54.9760    0.0000 </r>
       <r>   55.4264    0.0000 </r>
       <r>   56.9235    0.0000 </r>
       <r>   57.9206    0.0000 </r>
       <r>   60.3299    0.0000 </r>
       <r>   60.8354    0.0000 </r>
       <r>   65.1094    0.0000 </r>
       <r>   66.3080    0.0000 </r>
       <r>   66.5747    0.0000 </r>
       <r>   73.8474    0.0000 </r>
       <r>   76.3898    0.0000 </r>
      </set>
      <set comment="kpoint 19">
       <r>   -8.6866    1.0000 </r>
       <r>   -4.0624    1.0000 </r>
       <r>    2.0945    1.0000 </r>
       <r>    2.1008    1.0000 </r>
       <r>    4.5611    0.0000 </r>
       <r>    8.0390    0.0000 </r>
       <r>    8.0422    0.0000 </r>
       <r>   11.6304    0.0000 </r>
       <r>   13.4761    0.0000 </r>
       <r>   14.2268    0.0000 </r>
       <r>   14.2374    0.0000 </r>
       <r>   17.6253    0.0000 </r>
       <r>   18.6302    0.0000 </r>
       <r>   18.6336    0.0000 </r>
       <r>   21.4488    0.0000 </r>
       <r>   23.3762    0.0000 </r>
       <r>   23.3776    0.0000 </r>
       <r>   26.5983    0.0000 </r>
       <r>   27.9154    0.0000 </r>
       <r>   29.3180    0.0000 </r>
       <r>   29.3273    0.0000 </r>
       <r>   31.2194    0.0000 </r>
       <r>   31.4162    0.0000 </r>
       <r>   32.0934    0.0000 </r>
       <r>   32.2742    0.0000 </r>
       <r>   32.8734    0.0000 </r>
       <r>   33.1131    0.0000 </r>
       <r>   36.4336    0.0000 </r>
       <r>   36.8636    0.0000 </r>
       <r>   36.9146    0.0000 </r>
       <r>   37.2012    0.0000 </r>
       <r>   37.2895    0.0000 </r>
       <r>   40.1547    0.0000 </r>
       <r>   41.8683    0.0000 </r>
       <r>   43.6349    0.0000 </r>
       <r>   45.0002    0.0000 </r>
       <r>   45.1826    0.0000 </r>
       <r>   46.1115    0.0000 </r>
       <r>   48.2815    0.0000 </r>
       <r>   49.6162    0.0000 </r>
       <r>   50.0504    0.0000 </r>
       <r>   53.2657    0.0000 </r>
       <r>   54.2367    0.0000 </r>
       <r>   54.8976    0.0000 </r>
       <r>   55.4643    0.0000 </r>
       <r>   56.7964    0.0000 </r>
       <r>   58.6934    0.0000 </r>
       <r>   59.1798    0.0000 </r>
       <r>   60.6934    0.0000 </r>
       <r>   64.9444    0.0000 </r>
       <r>   66.2123    0.0000 </r>
       <r>   66.6273    0.0000 </r>
       <r>   73.8467    0.0000 </r>
       <r>   76.4830    0.0000 </r>
      </set>
      <set comment="kpoint 20">
       <r>   -8.7610    1.0000 </r>
       <r>   -3.9246    1.0000 </r>
       <r>    2.1159    1.0000 </r>
       <r>    2.1222    1.0000 </r>
       <r>    4.5805    0.0000 </r>
       <r>    8.0449    0.0000 </r>
       <r>    8.0481    0.0000 </r>
       <r>   11.6540    0.0000 </r>
       <r>   13.2678    0.0000 </r>
       <r>   14.0617    0.0000 </r>
       <r>   14.0715    0.0000 </r>
       <r>   17.6865    0.0000 </r>
       <r>   18.8773    0.0000 </r>
       <r>   18.8794    0.0000 </r>
       <r>   21.3206    0.0000 </r>
       <r>   23.0996    0.0000 </r>
       <r>   23.1010    0.0000 </r>
       <r>   26.3657    0.0000 </r>
       <r>   28.1934    0.0000 </r>
       <r>   29.5842    0.0000 </r>
       <r>   29.5958    0.0000 </r>
       <r>   31.2314    0.0000 </r>
       <r>   31.4211    0.0000 </r>
       <r>   32.0728    0.0000 </r>
       <r>   32.2507    0.0000 </r>
       <r>   33.0742    0.0000 </r>
       <r>   33.0791    0.0000 </r>
       <r>   36.5017    0.0000 </r>
       <r>   36.9426    0.0000 </r>
       <r>   36.9508    0.0000 </r>
       <r>   37.3077    0.0000 </r>
       <r>   37.3667    0.0000 </r>
       <r>   40.3371    0.0000 </r>
       <r>   41.8829    0.0000 </r>
       <r>   43.6449    0.0000 </r>
       <r>   44.8946    0.0000 </r>
       <r>   44.9973    0.0000 </r>
       <r>   45.9036    0.0000 </r>
       <r>   48.4211    0.0000 </r>
       <r>   49.6334    0.0000 </r>
       <r>   49.8366    0.0000 </r>
       <r>   53.0229    0.0000 </r>
       <r>   54.1656    0.0000 </r>
       <r>   54.6266    0.0000 </r>
       <r>   55.5116    0.0000 </r>
       <r>   56.7122    0.0000 </r>
       <r>   58.3320    0.0000 </r>
       <r>   59.1727    0.0000 </r>
       <r>   60.5047    0.0000 </r>
       <r>   64.8773    0.0000 </r>
       <r>   66.1542    0.0000 </r>
       <r>   66.6345    0.0000 </r>
       <r>   73.8605    0.0000 </r>
       <r>   76.6403    0.0000 </r>
      </set>
      <set comment="kpoint 21">
       <r>   -8.8373    1.0000 </r>
       <r>   -3.7789    1.0000 </r>
       <r>    2.1391    1.0000 </r>
       <r>    2.1455    1.0000 </r>
       <r>    4.6016    0.0000 </r>
       <r>    8.0504    0.0000 </r>
       <r>    8.0535    0.0000 </r>
       <r>   11.6763    0.0000 </r>
       <r>   13.0639    0.0000 </r>
       <r>   13.9023    0.0000 </r>
       <r>   13.9113    0.0000 </r>
       <r>   17.7055    0.0000 </r>
       <r>   19.1262    0.0000 </r>
       <r>   19.1269    0.0000 </r>
       <r>   21.2386    0.0000 </r>
       <r>   22.8269    0.0000 </r>
       <r>   22.8284    0.0000 </r>
       <r>   26.1002    0.0000 </r>
       <r>   28.5082    0.0000 </r>
       <r>   29.8230    0.0000 </r>
       <r>   29.8412    0.0000 </r>
       <r>   31.2566    0.0000 </r>
       <r>   31.4402    0.0000 </r>
       <r>   32.0641    0.0000 </r>
       <r>   32.2333    0.0000 </r>
       <r>   32.9481    0.0000 </r>
       <r>   33.3406    0.0000 </r>
       <r>   36.5768    0.0000 </r>
       <r>   36.9973    0.0000 </r>
       <r>   37.0406    0.0000 </r>
       <r>   37.3366    0.0000 </r>
       <r>   37.5102    0.0000 </r>
       <r>   40.4286    0.0000 </r>
       <r>   41.9114    0.0000 </r>
       <r>   43.6653    0.0000 </r>
       <r>   44.6780    0.0000 </r>
       <r>   44.8240    0.0000 </r>
       <r>   45.7491    0.0000 </r>
       <r>   48.2502    0.0000 </r>
       <r>   49.4661    0.0000 </r>
       <r>   49.5801    0.0000 </r>
       <r>   52.7202    0.0000 </r>
       <r>   53.9557    0.0000 </r>
       <r>   54.2578    0.0000 </r>
       <r>   55.5116    0.0000 </r>
       <r>   56.7017    0.0000 </r>
       <r>   57.9212    0.0000 </r>
       <r>   59.0565    0.0000 </r>
       <r>   60.2515    0.0000 </r>
       <r>   64.5515    0.0000 </r>
       <r>   66.0343    0.0000 </r>
       <r>   66.3377    0.0000 </r>
       <r>   73.7304    0.0000 </r>
       <r>   76.7671    0.0000 </r>
      </set>
      <set comment="kpoint 22">
       <r>   -8.9149    1.0000 </r>
       <r>   -3.6260    1.0000 </r>
       <r>    2.1644    1.0000 </r>
       <r>    2.1707    1.0000 </r>
       <r>    4.6246    0.0000 </r>
       <r>    8.0549    0.0000 </r>
       <r>    8.0580    0.0000 </r>
       <r>   11.6949    0.0000 </r>
       <r>   12.8672    0.0000 </r>
       <r>   13.7490    0.0000 </r>
       <r>   13.7573    0.0000 </r>
       <r>   17.6786    0.0000 </r>
       <r>   19.3755    0.0000 </r>
       <r>   19.3762    0.0000 </r>
       <r>   21.2072    0.0000 </r>
       <r>   22.5588    0.0000 </r>
       <r>   22.5603    0.0000 </r>
       <r>   25.8224    0.0000 </r>
       <r>   28.8399    0.0000 </r>
       <r>   30.0216    0.0000 </r>
       <r>   30.0571    0.0000 </r>
       <r>   31.2974    0.0000 </r>
       <r>   31.4739    0.0000 </r>
       <r>   32.0773    0.0000 </r>
       <r>   32.2290    0.0000 </r>
       <r>   32.8215    0.0000 </r>
       <r>   33.5679    0.0000 </r>
       <r>   36.6576    0.0000 </r>
       <r>   37.0843    0.0000 </r>
       <r>   37.1347    0.0000 </r>
       <r>   37.3878    0.0000 </r>
       <r>   37.6637    0.0000 </r>
       <r>   40.5706    0.0000 </r>
       <r>   41.9360    0.0000 </r>
       <r>   43.6759    0.0000 </r>
       <r>   44.3753    0.0000 </r>
       <r>   44.6527    0.0000 </r>
       <r>   45.6260    0.0000 </r>
       <r>   48.1860    0.0000 </r>
       <r>   49.2444    0.0000 </r>
       <r>   49.5335    0.0000 </r>
       <r>   52.4640    0.0000 </r>
       <r>   53.7955    0.0000 </r>
       <r>   53.9532    0.0000 </r>
       <r>   55.4057    0.0000 </r>
       <r>   56.7550    0.0000 </r>
       <r>   57.7391    0.0000 </r>
       <r>   58.9985    0.0000 </r>
       <r>   59.9067    0.0000 </r>
       <r>   64.3800    0.0000 </r>
       <r>   65.9108    0.0000 </r>
       <r>   66.1348    0.0000 </r>
       <r>   73.5453    0.0000 </r>
       <r>   76.8885    0.0000 </r>
      </set>
      <set comment="kpoint 23">
       <r>   -8.9932    1.0000 </r>
       <r>   -3.4666    1.0000 </r>
       <r>    2.1915    1.0000 </r>
       <r>    2.1979    1.0000 </r>
       <r>    4.6493    0.0000 </r>
       <r>    8.0583    0.0000 </r>
       <r>    8.0613    0.0000 </r>
       <r>   11.7050    0.0000 </r>
       <r>   12.6822    0.0000 </r>
       <r>   13.6023    0.0000 </r>
       <r>   13.6099    0.0000 </r>
       <r>   17.6058    0.0000 </r>
       <r>   19.6239    0.0000 </r>
       <r>   19.6259    0.0000 </r>
       <r>   21.2265    0.0000 </r>
       <r>   22.2967    0.0000 </r>
       <r>   22.2981    0.0000 </r>
       <r>   25.5401    0.0000 </r>
       <r>   29.1808    0.0000 </r>
       <r>   30.1701    0.0000 </r>
       <r>   30.2358    0.0000 </r>
       <r>   31.3508    0.0000 </r>
       <r>   31.5260    0.0000 </r>
       <r>   32.1250    0.0000 </r>
       <r>   32.2496    0.0000 </r>
       <r>   32.7329    0.0000 </r>
       <r>   33.7290    0.0000 </r>
       <r>   36.7442    0.0000 </r>
       <r>   37.2071    0.0000 </r>
       <r>   37.2329    0.0000 </r>
       <r>   37.4803    0.0000 </r>
       <r>   37.7733    0.0000 </r>
       <r>   40.7573    0.0000 </r>
       <r>   41.9151    0.0000 </r>
       <r>   43.6945    0.0000 </r>
       <r>   44.0585    0.0000 </r>
       <r>   44.4803    0.0000 </r>
       <r>   45.5436    0.0000 </r>
       <r>   48.0999    0.0000 </r>
       <r>   49.0664    0.0000 </r>
       <r>   49.3976    0.0000 </r>
       <r>   52.1664    0.0000 </r>
       <r>   53.4946    0.0000 </r>
       <r>   53.7526    0.0000 </r>
       <r>   55.0956    0.0000 </r>
       <r>   56.8721    0.0000 </r>
       <r>   57.8091    0.0000 </r>
       <r>   58.7877    0.0000 </r>
       <r>   59.5029    0.0000 </r>
       <r>   64.2570    0.0000 </r>
       <r>   65.8041    0.0000 </r>
       <r>   66.4176    0.0000 </r>
       <r>   73.5425    0.0000 </r>
       <r>   77.0610    0.0000 </r>
      </set>
      <set comment="kpoint 24">
       <r>   -9.0717    1.0000 </r>
       <r>   -3.3011    1.0000 </r>
       <r>    2.2205    1.0000 </r>
       <r>    2.2269    1.0000 </r>
       <r>    4.6756    0.0000 </r>
       <r>    8.0602    0.0000 </r>
       <r>    8.0631    0.0000 </r>
       <r>   11.6982    0.0000 </r>
       <r>   12.5175    0.0000 </r>
       <r>   13.4626    0.0000 </r>
       <r>   13.4696    0.0000 </r>
       <r>   17.4913    0.0000 </r>
       <r>   19.8696    0.0000 </r>
       <r>   19.8727    0.0000 </r>
       <r>   21.2928    0.0000 </r>
       <r>   22.0425    0.0000 </r>
       <r>   22.0436    0.0000 </r>
       <r>   25.2569    0.0000 </r>
       <r>   29.5272    0.0000 </r>
       <r>   30.2749    0.0000 </r>
       <r>   30.3630    0.0000 </r>
       <r>   31.4045    0.0000 </r>
       <r>   31.5777    0.0000 </r>
       <r>   32.2256    0.0000 </r>
       <r>   32.3064    0.0000 </r>
       <r>   32.6675    0.0000 </r>
       <r>   33.8367    0.0000 </r>
       <r>   36.8354    0.0000 </r>
       <r>   37.3338    0.0000 </r>
       <r>   37.3566    0.0000 </r>
       <r>   37.5964    0.0000 </r>
       <r>   37.8979    0.0000 </r>
       <r>   40.9553    0.0000 </r>
       <r>   41.8726    0.0000 </r>
       <r>   43.6802    0.0000 </r>
       <r>   43.7358    0.0000 </r>
       <r>   44.2986    0.0000 </r>
       <r>   45.5072    0.0000 </r>
       <r>   47.9212    0.0000 </r>
       <r>   48.8656    0.0000 </r>
       <r>   49.2868    0.0000 </r>
       <r>   51.8782    0.0000 </r>
       <r>   53.1857    0.0000 </r>
       <r>   53.6446    0.0000 </r>
       <r>   54.7557    0.0000 </r>
       <r>   56.9091    0.0000 </r>
       <r>   57.8570    0.0000 </r>
       <r>   58.5534    0.0000 </r>
       <r>   59.1180    0.0000 </r>
       <r>   64.0437    0.0000 </r>
       <r>   65.6252    0.0000 </r>
       <r>   66.3568    0.0000 </r>
       <r>   73.3996    0.0000 </r>
       <r>   77.1470    0.0000 </r>
      </set>
      <set comment="kpoint 25">
       <r>   -9.1500    1.0000 </r>
       <r>   -3.1299    1.0000 </r>
       <r>    2.2514    1.0000 </r>
       <r>    2.2578    1.0000 </r>
       <r>    4.7037    0.0000 </r>
       <r>    8.0601    0.0000 </r>
       <r>    8.0630    0.0000 </r>
       <r>   11.6608    0.0000 </r>
       <r>   12.3866    0.0000 </r>
       <r>   13.3305    0.0000 </r>
       <r>   13.3369    0.0000 </r>
       <r>   17.3417    0.0000 </r>
       <r>   20.1078    0.0000 </r>
       <r>   20.1118    0.0000 </r>
       <r>   21.4025    0.0000 </r>
       <r>   21.7997    0.0000 </r>
       <r>   21.8008    0.0000 </r>
       <r>   24.9750    0.0000 </r>
       <r>   29.8776    0.0000 </r>
       <r>   30.3386    0.0000 </r>
       <r>   30.4458    0.0000 </r>
       <r>   31.4405    0.0000 </r>
       <r>   31.6065    0.0000 </r>
       <r>   32.3873    0.0000 </r>
       <r>   32.4135    0.0000 </r>
       <r>   32.6264    0.0000 </r>
       <r>   33.9018    0.0000 </r>
       <r>   36.9319    0.0000 </r>
       <r>   37.4417    0.0000 </r>
       <r>   37.5203    0.0000 </r>
       <r>   37.7621    0.0000 </r>
       <r>   37.9991    0.0000 </r>
       <r>   41.2396    0.0000 </r>
       <r>   41.7916    0.0000 </r>
       <r>   43.3789    0.0000 </r>
       <r>   43.6311    0.0000 </r>
[...]
       <r>    60.6143     0.1739    54.0000 </r>
       <r>    60.9733     0.0000    54.0000 </r>
       <r>    61.3324     0.0000    54.0000 </r>
       <r>    61.6914     0.0000    54.0000 </r>
       <r>    62.0504     0.0000    54.0000 </r>
       <r>    62.4094     0.0000    54.0000 </r>
       <r>    62.7684     0.0000    54.0000 </r>
       <r>    63.1275     0.0000    54.0000 </r>
       <r>    63.4865     0.0000    54.0000 </r>
       <r>    63.8455     0.0000    54.0000 </r>
       <r>    64.2045     0.0000    54.0000 </r>
       <r>    64.5635     0.0000    54.0000 </r>
       <r>    64.9225     0.0000    54.0000 </r>
       <r>    65.2816     0.0000    54.0000 </r>
       <r>    65.6406     0.0000    54.0000 </r>
       <r>    65.9996     0.0000    54.0000 </r>
       <r>    66.3586     0.0000    54.0000 </r>
       <r>    66.7176     0.0000    54.0000 </r>
       <r>    67.0767     0.0000    54.0000 </r>
       <r>    67.4357     0.0000    54.0000 </r>
       <r>    67.7947     0.0000    54.0000 </r>
       <r>    68.1537     0.0000    54.0000 </r>
       <r>    68.5127     0.0000    54.0000 </r>
       <r>    68.8717     0.0000    54.0000 </r>
       <r>    69.2308     0.0000    54.0000 </r>
       <r>    69.5898     0.0000    54.0000 </r>
       <r>    69.9488     0.0000    54.0000 </r>
       <r>    70.3078     0.0000    54.0000 </r>
       <r>    70.6668     0.0000    54.0000 </r>
       <r>    71.0258     0.0000    54.0000 </r>
       <r>    71.3849     0.0000    54.0000 </r>
       <r>    71.7439     0.0000    54.0000 </r>
       <r>    72.1029     0.0000    54.0000 </r>
       <r>    72.4619     0.0000    54.0000 </r>
       <r>    72.8209     0.0000    54.0000 </r>
       <r>    73.1800     0.0000    54.0000 </r>
       <r>    73.5390     0.0000    54.0000 </r>
       <r>    73.8980     0.0000    54.0000 </r>
       <r>    74.2570     0.0000    54.0000 </r>
       <r>    74.6160     0.0000    54.0000 </r>
       <r>    74.9750     0.0000    54.0000 </r>
       <r>    75.3341     0.0000    54.0000 </r>
       <r>    75.6931     0.0000    54.0000 </r>
       <r>    76.0521     0.0000    54.0000 </r>
       <r>    76.4111     0.0000    54.0000 </r>
       <r>    76.7701     0.0000    54.0000 </r>
       <r>    77.1292     0.0000    54.0000 </r>
       <r>    77.4882     0.0000    54.0000 </r>
       <r>    77.8472     0.0000    54.0000 </r>
       <r>    78.2062     0.0000    54.0000 </r>
       <r>    78.5652     0.0000    54.0000 </r>
       <r>    78.9242     0.0000    54.0000 </r>
       <r>    79.2833     0.0000    54.0000 </r>
       <r>    79.6423     0.0000    54.0000 </r>
       <r>    80.0013     0.0000    54.0000 </r>
       <r>    80.3603     0.0000    54.0000 </r>
       <r>    80.7193     0.0000    54.0000 </r>
       <r>    81.0783     0.0000    54.0000 </r>
       <r>    81.4374     0.0000    54.0000 </r>
       <r>    81.7964     0.0000    54.0000 </r>
       <r>    82.1554     0.0000    54.0000 </r>
       <r>    82.5144     0.0000    54.0000 </r>
       <r>    82.8734     0.0000    54.0000 </r>
       <r>    83.2325     0.0000    54.0000 </r>
       <r>    83.5915     0.0000    54.0000 </r>
       <r>    83.9505     0.0000    54.0000 </r>
       <r>    84.3095     0.0000    54.0000 </r>
       <r>    84.6685     0.0000    54.0000 </r>
       <r>    85.0275     0.0000    54.0000 </r>
       <r>    85.3866     0.0000    54.0000 </r>
       <r>    85.7456     0.0000    54.0000 </r>
       <r>    86.1046     0.0000    54.0000 </r>
       <r>    86.4636     0.0000    54.0000 </r>
       <r>    86.8226     0.0000    54.0000 </r>
       <r>    87.1817     0.0000    54.0000 </r>
       <r>    87.5407     0.0000    54.0000 </r>
       <r>    87.8997     0.0000    54.0000 </r>
       <r>    88.2587     0.0000    54.0000 </r>
       <r>    88.6177     0.0000    54.0000 </r>
       <r>    88.9767     0.0000    54.0000 </r>
       <r>    89.3358     0.0000    54.0000 </r>
       <r>    89.6948     0.0000    54.0000 </r>
       <r>    90.0538     0.0000    54.0000 </r>
       <r>    90.4128     0.0000    54.0000 </r>
       <r>    90.7718     0.0000    54.0000 </r>
       <r>    91.1308     0.0000    54.0000 </r>
       <r>    91.4899     0.0000    54.0000 </r>
       <r>    91.8489     0.0000    54.0000 </r>
       <r>    92.2079     0.0000    54.0000 </r>
      </set>
      <set comment="spin 2">
       <r>   -15.4975     0.0000     0.0000 </r>
       <r>   -15.1384     0.0000     0.0000 </r>
       <r>   -14.7794     0.0000     0.0000 </r>
       <r>   -14.4204     0.0000     0.0000 </r>
       <r>   -14.0614     0.0000     0.0000 </r>
       <r>   -13.7024     0.0000     0.0000 </r>
       <r>   -13.3433     0.0000     0.0000 </r>
       <r>   -12.9843     0.0000     0.0000 </r>
       <r>   -12.6253     0.0000     0.0000 </r>
       <r>   -12.2663     0.0000     0.0000 </r>
       <r>   -11.9073     0.0000     0.0000 </r>
       <r>   -11.5483     0.0000     0.0000 </r>
       <r>   -11.1892     0.0000     0.0000 </r>
       <r>   -10.8302     0.0000     0.0000 </r>
       <r>   -10.4712     0.0435     0.0156 </r>
       <r>   -10.1122     0.0000     0.0156 </r>
       <r>    -9.7532     0.2355     0.1002 </r>
       <r>    -9.3942     0.3690     0.2327 </r>
       <r>    -9.0351     0.0000     0.2344 </r>
       <r>    -8.6761     0.0000     0.2344 </r>
       <r>    -8.3171     0.5254     0.4230 </r>
       <r>    -7.9581     0.1709     0.4844 </r>
       <r>    -7.5991     1.0445     0.8594 </r>
       <r>    -7.2400     0.0000     0.8594 </r>
       <r>    -6.8810     0.0000     0.8594 </r>
       <r>    -6.5220     0.0000     0.8594 </r>
       <r>    -6.1630     0.2494     0.9489 </r>
       <r>    -5.8040     0.5095     1.1406 </r>
       <r>    -5.4450     0.0000     1.1406 </r>
       <r>    -5.0859     0.0000     1.1406 </r>
       <r>    -4.7269     0.1724     1.2025 </r>
       <r>    -4.3679     1.0445     1.5781 </r>
       <r>    -4.0089     0.0000     1.5781 </r>
       <r>    -3.6499     0.0002     1.5782 </r>
       <r>    -3.2908     0.5221     1.7656 </r>
       <r>    -2.9318     0.0000     1.7656 </r>
       <r>    -2.5728     0.0000     1.7656 </r>
       <r>    -2.2138     0.0000     1.7656 </r>
       <r>    -1.8548     0.0000     1.7656 </r>
       <r>    -1.4958     0.1711     1.8270 </r>
       <r>    -1.1367     0.4382     1.9844 </r>
       <r>    -0.7777     0.1509     2.0386 </r>
       <r>    -0.4187     1.9364     2.7338 </r>
       <r>    -0.0597     0.0000     2.7344 </r>
       <r>     0.2993     0.2611     2.8281 </r>
       <r>     0.6583     0.0000     2.8281 </r>
       <r>     1.0174     1.0444     3.2031 </r>
       <r>     1.3764     0.5114     3.3867 </r>
       <r>     1.7354     0.0000     3.3906 </r>
       <r>     2.0944     0.8699     3.7029 </r>
       <r>     2.4534     0.0001     3.7032 </r>
       <r>     2.8125     0.6962     3.9531 </r>
       <r>     3.1715     0.0000     3.9531 </r>
       <r>     3.5305     0.0627     3.9756 </r>
       <r>     3.8895     0.0678     4.0000 </r>
       <r>     4.2485     0.0000     4.0000 </r>
       <r>     4.6075     0.1763     4.0633 </r>
       <r>     4.9666     0.3463     4.1876 </r>
       <r>     5.3256     0.5654     4.3906 </r>
       <r>     5.6846     1.0439     4.7654 </r>
       <r>     6.0436     0.0000     4.7656 </r>
       <r>     6.4026     0.5222     4.9531 </r>
       <r>     6.7617     0.0391     4.9672 </r>
       <r>     7.1207     0.3154     5.0804 </r>
       <r>     7.4797     0.0371     5.0938 </r>
       <r>     7.8387     0.0039     5.0952 </r>
       <r>     8.1977     1.0406     5.4687 </r>
       <r>     8.5567     0.0007     5.4690 </r>
       <r>     8.9158     1.6314     6.0547 </r>
       <r>     9.2748     0.9430     6.3957 </r>
       <r>     9.6338     0.5221     6.5937 </r>
       <r>     9.9928     1.5668     7.1562 </r>
       <r>    10.3518     0.7295     7.4182 </r>
       <r>    10.7108     1.0091     7.7805 </r>
       <r>    11.0699     0.2197     7.8594 </r>
       <r>    11.4289     0.0046     7.8610 </r>
       <r>    11.7879     0.4351     8.0172 </r>
       <r>    12.1469     0.5178     8.2031 </r>
       <r>    12.5059     0.3333     8.3228 </r>
       <r>    12.8650     0.6862     8.5781 </r>
       <r>    13.2240     0.0000     8.5781 </r>
       <r>    13.5830     0.0002     8.5782 </r>
       <r>    13.9420     0.0868     8.6094 </r>
       <r>    14.3010     0.5223     8.7969 </r>
       <r>    14.6600     0.8317     9.0955 </r>
       <r>    15.0191     0.9962     9.4531 </r>
       <r>    15.3781     0.3046     9.5625 </r>
       <r>    15.7371     0.6040     9.7793 </r>
       <r>    16.0961     1.6591    10.3750 </r>
       <r>    16.4551     0.1775    10.4387 </r>
       <r>    16.8142     2.1726    11.2187 </r>
       <r>    17.1732     1.7670    11.8531 </r>
       <r>    17.5322     0.5263    12.0640 </r>
       <r>    17.8912     1.5627    12.6250 </r>
       <r>    18.2502     0.5321    12.8161 </r>
       <r>    18.6092     0.5558    13.0156 </r>
       <r>    18.9683     0.0000    13.0156 </r>
       <r>    19.3273     0.0000    13.0156 </r>
       <r>    19.6863     0.6963    13.2656 </r>
       <r>    20.0453     0.0000    13.2656 </r>
       <r>    20.4043     0.0000    13.2656 </r>
       <r>    20.7633     0.0000    13.2656 </r>
       <r>    21.1224     1.0445    13.6406 </r>
       <r>    21.4814     1.0444    14.0156 </r>
       <r>    21.8404     0.2134    14.0922 </r>
       <r>    22.1994     0.3600    14.2215 </r>
       <r>    22.5584     1.8872    14.8990 </r>
       <r>    22.9175     1.1952    15.3281 </r>
       <r>    23.2765     0.2284    15.4101 </r>
       <r>    23.6355     1.9846    16.1226 </r>
       <r>    23.9945     1.4360    16.6449 </r>
       <r>    24.3535     2.0957    17.3973 </r>
       <r>    24.7125     2.0970    18.1501 </r>
       <r>    25.0716     0.1478    18.2032 </r>
       <r>    25.4306     0.5443    18.3986 </r>
       <r>    25.7896     0.7611    18.6719 </r>
       <r>    26.1486     0.0403    18.6863 </r>
       <r>    26.5076     1.4278    19.1989 </r>
       <r>    26.8667     0.7951    19.4844 </r>
       <r>    27.2257     0.0000    19.4844 </r>
       <r>    27.5847     0.0000    19.4844 </r>
       <r>    27.9437     0.6366    19.7129 </r>
       <r>    28.3027     0.4079    19.8594 </r>
       <r>    28.6617     1.5643    20.4210 </r>
       <r>    29.0208     0.0842    20.4521 </r>
       <r>    29.3798     1.0909    20.8438 </r>
       <r>    29.7388     0.7204    21.1024 </r>
       <r>    30.0978     1.0591    21.4828 </r>
       <r>    30.4568     1.6122    22.0616 </r>
       <r>    30.8158     1.6941    22.6870 </r>
       <r>    31.1749     0.1780    22.7670 </r>
       <r>    31.5339     2.1027    23.5219 </r>
       <r>    31.8929     1.5017    24.0611 </r>
       <r>    32.2519     0.3956    24.2045 </r>
       <r>    32.6109     2.3312    25.0415 </r>
       <r>    32.9700     0.9047    25.3873 </r>
       <r>    33.3290     2.2285    26.1875 </r>
       <r>    33.6880     0.2610    26.2812 </r>
       <r>    34.0470     0.6089    26.5000 </r>
       <r>    34.4060     1.6724    27.1004 </r>
       <r>    34.7650     0.6777    27.3438 </r>
       <r>    35.1241     0.6963    27.5937 </r>
       <r>    35.4831     0.0159    27.5995 </r>
       <r>    35.8421     1.0286    27.9688 </r>
       <r>    36.2011     0.3463    28.0931 </r>
       <r>    36.5601     0.3423    28.2188 </r>
       <r>    36.9192     0.2442    28.3064 </r>
       <r>    37.2782     0.4108    28.4600 </r>
       <r>    37.6372     1.5703    29.0312 </r>
       <r>    37.9962     0.9667    29.3783 </r>
       <r>    38.3552     2.4253    30.2490 </r>
       <r>    38.7142     0.3281    30.3679 </r>
       <r>    39.0733     1.2791    30.8271 </r>
       <r>    39.4323     1.4394    31.3439 </r>
       <r>    39.7913     1.5768    31.9100 </r>
       <r>    40.1503     1.0768    32.3085 </r>
       <r>    40.5093     2.1794    33.1021 </r>
       <r>    40.8683     3.0709    34.2047 </r>
       <r>    41.2274     1.8106    34.8646 </r>
       <r>    41.5864     0.9863    35.2187 </r>
       <r>    41.9454     0.0000    35.2188 </r>
       <r>    42.3044     0.0018    35.2194 </r>
       <r>    42.6634     0.5204    35.4063 </r>
       <r>    43.0225     0.3527    35.5329 </r>
       <r>    43.3815     0.7951    35.8183 </r>
       <r>    43.7405     1.7308    36.4397 </r>
       <r>    44.0995     1.3865    36.9375 </r>
       <r>    44.4585     0.0000    36.9375 </r>
       <r>    44.8175     0.3475    37.0623 </r>
       <r>    45.1766     0.5399    37.2564 </r>
       <r>    45.5356     1.1921    37.6853 </r>
       <r>    45.8946     1.1436    38.0961 </r>
       <r>    46.2536     3.3272    39.2906 </r>
       <r>    46.6126     0.6592    39.5294 </r>
       <r>    46.9717     0.3677    39.6614 </r>
       <r>    47.3307     3.3369    40.8594 </r>
       <r>    47.6897     0.6491    41.0924 </r>
       <r>    48.0487     0.7466    41.3618 </r>
       <r>    48.4077     1.7400    41.9865 </r>
       <r>    48.7667     1.0443    42.4062 </r>
       <r>    49.1258     0.0000    42.4063 </r>
       <r>    49.4848     1.2333    42.8490 </r>
       <r>    49.8438     0.2899    42.9563 </r>
       <r>    50.2028     2.0580    43.6951 </r>
       <r>    50.5618     0.2796    43.8191 </r>
       <r>    50.9208     2.5558    44.7368 </r>
       <r>    51.2799     1.5121    45.3242 </r>
       <r>    51.6389     1.0004    45.6846 </r>
       <r>    51.9979     1.4104    46.1910 </r>
       <r>    52.3569     1.3819    46.7031 </r>
       <r>    52.7159     2.0890    47.4531 </r>
       <r>    53.0750     0.1241    47.4977 </r>
       <r>    53.4340     2.3565    48.3437 </r>
       <r>    53.7930     1.2953    48.8088 </r>
       <r>    54.1520     0.3482    48.9375 </r>
       <r>    54.5110     0.0000    48.9375 </r>
       <r>    54.8700     0.8434    49.2403 </r>
       <r>    55.2291     1.0445    49.6250 </r>
       <r>    55.5881     0.8704    49.9375 </r>
       <r>    55.9471     0.0203    49.9448 </r>
       <r>    56.3061     1.4228    50.4556 </r>
       <r>    56.6651     0.0335    50.4688 </r>
       <r>    57.0242     2.1004    51.2228 </r>
       <r>    57.3832     1.9892    51.9377 </r>
       <r>    57.7422     0.3040    52.0469 </r>
       <r>    58.1012     1.9979    52.7642 </r>
       <r>    58.4602     1.0418    53.1406 </r>
       <r>    58.8192     0.6530    53.3751 </r>
       <r>    59.1783     0.1304    53.4219 </r>
       <r>    59.5373     0.1174    53.4640 </r>
       <r>    59.8963     1.4790    53.9998 </r>
       <r>    60.2553     0.0000    54.0000 </r>
       <r>    60.6143     0.0000    54.0000 </r>
       <r>    60.9733     0.0000    54.0000 </r>
       <r>    61.3324     0.0000    54.0000 </r>
       <r>    61.6914     0.0000    54.0000 </r>
       <r>    62.0504     0.0000    54.0000 </r>
       <r>    62.4094     0.0000    54.0000 </r>
       <r>    62.7684     0.0000    54.0000 </r>
       <r>    63.1275     0.0000    54.0000 </r>
       <r>    63.4865     0.0000    54.0000 </r>
       <r>    63.8455     0.0000    54.0000 </r>
       <r>    64.2045     0.0000    54.0000 </r>
       <r>    64.5635     0.0000    54.0000 </r>
       <r>    64.9225     0.0000    54.0000 </r>
       <r>    65.2816     0.0000    54.0000 </r>
       <r>    65.6406     0.0000    54.0000 </r>
       <r>    65.9996     0.0000    54.0000 </r>
       <r>    66.3586     0.0000    54.0000 </r>
       <r>    66.7176     0.0000    54.0000 </r>
       <r>    67.0767     0.0000    54.0000 </r>
       <r>    67.4357     0.0000    54.0000 </r>
       <r>    67.7947     0.0000    54.0000 </r>
       <r>    68.1537     0.0000    54.0000 </r>
       <r>    68.5127     0.0000    54.0000 </r>
       <r>    68.8717     0.0000    54.0000 </r>
       <r>    69.2308     0.0000    54.0000 </r>
       <r>    69.5898     0.0000    54.0000 </r>
       <r>    69.9488     0.0000    54.0000 </r>
       <r>    70.3078     0.0000    54.0000 </r>
       <r>    70.6668     0.0000    54.0000 </r>
       <r>    71.0258     0.0000    54.0000 </r>
       <r>    71.3849     0.0000    54.0000 </r>
       <r>    71.7439     0.0000    54.0000 </r>
       <r>    72.1029     0.0000    54.0000 </r>
       <r>    72.4619     0.0000    54.0000 </r>
       <r>    72.8209     0.0000    54.0000 </r>
       <r>    73.1800     0.0000    54.0000 </r>
       <r>    73.5390     0.0000    54.0000 </r>
       <r>    73.8980     0.0000    54.0000 </r>
       <r>    74.2570     0.0000    54.0000 </r>
       <r>    74.6160     0.0000    54.0000 </r>
       <r>    74.9750     0.0000    54.0000 </r>
       <r>    75.3341     0.0000    54.0000 </r>
       <r>    75.6931     0.0000    54.0000 </r>
       <r>    76.0521     0.0000    54.0000 </r>
       <r>    76.4111     0.0000    54.0000 </r>
       <r>    76.7701     0.0000    54.0000 </r>
       <r>    77.1292     0.0000    54.0000 </r>
       <r>    77.4882     0.0000    54.0000 </r>
       <r>    77.8472     0.0000    54.0000 </r>
       <r>    78.2062     0.0000    54.0000 </r>
       <r>    78.5652     0.0000    54.0000 </r>
       <r>    78.9242     0.0000    54.0000 </r>
       <r>    79.2833     0.0000    54.0000 </r>
       <r>    79.6423     0.0000    54.0000 </r>
       <r>    80.0013     0.0000    54.0000 </r>
       <r>    80.3603     0.0000    54.0000 </r>
       <r>    80.7193     0.0000    54.0000 </r>
       <r>    81.0783     0.0000    54.0000 </r>
       <r>    81.4374     0.0000    54.0000 </r>
       <r>    81.7964     0.0000    54.0000 </r>
       <r>    82.1554     0.0000    54.0000 </r>
       <r>    82.5144     0.0000    54.0000 </r>
       <r>    82.8734     0.0000    54.0000 </r>
       <r>    83.2325     0.0000    54.0000 </r>
       <r>    83.5915     0.0000    54.0000 </r>
       <r>    83.9505     0.0000    54.0000 </r>
       <r>    84.3095     0.0000    54.0000 </r>
       <r>    84.6685     0.0000    54.0000 </r>
       <r>    85.0275     0.0000    54.0000 </r>
       <r>    85.3866     0.0000    54.0000 </r>
       <r>    85.7456     0.0000    54.0000 </r>
       <r>    86.1046     0.0000    54.0000 </r>
       <r>    86.4636     0.0000    54.0000 </r>
       <r>    86.8226     0.0000    54.0000 </r>
       <r>    87.1817     0.0000    54.0000 </r>
       <r>    87.5407     0.0000    54.0000 </r>
       <r>    87.8997     0.0000    54.0000 </r>
       <r>    88.2587     0.0000    54.0000 </r>
       <r>    88.6177     0.0000    54.0000 </r>
       <r>    88.9767     0.0000    54.0000 </r>
       <r>    89.3358     0.0000    54.0000 </r>
       <r>    89.6948     0.0000    54.0000 </r>
       <r>    90.0538     0.0000    54.0000 </r>
       <r>    90.4128     0.0000    54.0000 </r>
       <r>    90.7718     0.0000    54.0000 </r>
       <r>    91.1308     0.0000    54.0000 </r>
       <r>    91.4899     0.0000    54.0000 </r>
       <r>    91.8489     0.0000    54.0000 </r>
       <r>    92.2079     0.0000    54.0000 </r>
      </set>
     </set>
    </array>
   </total>
  </dos>
 </calculation>
 <structure name="finalpos" >
  <crystal>
   <varray name="basis" >
    <v>       0.00000000       2.81650000       2.81650000 </v>
    <v>       2.81650000       0.00000000       2.81650000 </v>
    <v>       2.81650000       2.81650000       0.00000000 </v>
   </varray>
   <i name="volume">     44.68474278 </i>
   <varray name="rec_basis" >
    <v>      -0.17752530       0.17752530       0.17752530 </v>
    <v>       0.17752530      -0.17752530       0.17752530 </v>
    <v>       0.17752530       0.17752530      -0.17752530 </v>
   </varray>
  </crystal>
  <varray name="positions" >
   <v>       0.00000000       0.00000000       0.00000000 </v>
   <v>       0.25000000       0.25000000       0.25000000 </v>
  </varray>
 </structure>
</modeling>
