   2   2   0   0
  0.2779610E+02  0.4283936E-09  0.4283936E-09  0.4283936E-09  0.5000000E-15
  1.000000000000000E-004
  CAR 
 unknown system                          
     35.85503543    -10.64890904  301      3.38571624      1.00000000
    -10.649  0.0000E+00  0.0000E+00
    -10.494  0.0000E+00  0.0000E+00
    -10.339  0.0000E+00  0.0000E+00
    -10.184  0.0000E+00  0.0000E+00
    -10.029  0.0000E+00  0.0000E+00
     -9.874  0.0000E+00  0.0000E+00
     -9.719  0.0000E+00  0.0000E+00
     -9.564  0.0000E+00  0.0000E+00
     -9.409  0.0000E+00  0.0000E+00
     -9.254  0.0000E+00  0.0000E+00
     -9.099  0.0000E+00  0.0000E+00
     -8.944 -0.1337E-29 -0.2072E-30
     -8.789 -0.5465E-12 -0.8471E-13
     -8.634 -0.5207E-03 -0.8072E-04
     -8.479  0.6227E-01  0.9572E-02
     -8.324  0.3508E-01  0.1501E-01
     -8.169  0.8013E+00  0.1392E+00
     -8.014 -0.1161E-01  0.1374E+00
     -7.859  0.7511E+00  0.2539E+00
     -7.704  0.1036E+01  0.4145E+00
     -7.549  0.8507E+00  0.5463E+00
     -7.394  0.4420E-01  0.5532E+00
     -7.239  0.2099E+01  0.8785E+00
     -7.084  0.2786E+01  0.1310E+01
     -6.929  0.4832E+00  0.1385E+01
     -6.774  0.3178E+01  0.1878E+01
     -6.619  0.7894E+00  0.2000E+01
     -6.464 -0.1786E-02  0.2000E+01
     -6.309  0.0000E+00  0.2000E+01
     -6.154  0.0000E+00  0.2000E+01
     -5.999  0.0000E+00  0.2000E+01
     -5.844  0.0000E+00  0.2000E+01
     -5.688  0.0000E+00  0.2000E+01
     -5.533  0.0000E+00  0.2000E+01
     -5.378  0.0000E+00  0.2000E+01
     -5.223  0.0000E+00  0.2000E+01
     -5.068  0.0000E+00  0.2000E+01
     -4.913  0.0000E+00  0.2000E+01
     -4.758  0.0000E+00  0.2000E+01
     -4.603  0.0000E+00  0.2000E+01
     -4.448  0.0000E+00  0.2000E+01
     -4.293  0.0000E+00  0.2000E+01
     -4.138  0.0000E+00  0.2000E+01
     -3.983  0.0000E+00  0.2000E+01
     -3.828  0.0000E+00  0.2000E+01
     -3.673  0.0000E+00  0.2000E+01
     -3.518  0.0000E+00  0.2000E+01
     -3.363  0.0000E+00  0.2000E+01
     -3.208  0.0000E+00  0.2000E+01
     -3.053 -0.1491E-50  0.2000E+01
     -2.898 -0.8096E-26  0.2000E+01
     -2.743 -0.1573E-09  0.2000E+01
     -2.588 -0.5058E-02  0.1999E+01
     -2.433  0.4131E+00  0.2063E+01
     -2.278  0.1659E+01  0.2320E+01
     -2.123  0.4110E+01  0.2957E+01
     -1.968 -0.4010E-01  0.2951E+01
     -1.813  0.1691E+01  0.3213E+01
     -1.658  0.1195E+01  0.3399E+01
     -1.503 -0.3192E-01  0.3394E+01
     -1.348  0.8767E+00  0.3529E+01
     -1.193 -0.1110E-01  0.3528E+01
     -1.038 -0.1111E-01  0.3526E+01
     -0.883  0.1488E+01  0.3757E+01
     -0.728 -0.4327E-01  0.3750E+01
     -0.573 -0.1990E-03  0.3750E+01
     -0.418  0.5206E+00  0.3831E+01
     -0.263  0.1964E+00  0.3861E+01
     -0.108 -0.1103E-02  0.3861E+01
      0.047  0.7200E+00  0.3973E+01
      0.202  0.9572E+00  0.4121E+01
      0.357  0.4634E+00  0.4193E+01
      0.512  0.1438E+01  0.4416E+01
      0.667  0.2897E+01  0.4865E+01
      0.822  0.7807E+00  0.4986E+01
      0.977  0.1660E+01  0.5243E+01
      1.132  0.1578E+01  0.5488E+01
      1.287  0.2940E+01  0.5944E+01
      1.442  0.6574E+00  0.6045E+01
      1.597  0.2365E+01  0.6412E+01
      1.752  0.1958E+01  0.6716E+01
      1.907  0.1149E+01  0.6894E+01
      2.062  0.1722E+01  0.7161E+01
      2.217  0.2805E+00  0.7204E+01
      2.372  0.1870E+01  0.7494E+01
      2.527  0.8641E+00  0.7628E+01
      2.682  0.5617E+00  0.7715E+01
      2.837  0.7509E+00  0.7831E+01
      2.992  0.4219E+00  0.7897E+01
      3.147  0.6224E+00  0.7993E+01
      3.302 -0.1901E-01  0.7990E+01
      3.457  0.1255E+00  0.8010E+01
      3.612 -0.3652E-02  0.8009E+01
      3.767 -0.1754E-09  0.8009E+01
      3.922 -0.3849E-19  0.8009E+01
      4.077 -0.8782E-06  0.8009E+01
      4.232  0.4153E-01  0.8016E+01
      4.387  0.2967E+00  0.8062E+01
      4.542  0.6662E+00  0.8165E+01
      4.697  0.1902E+00  0.8194E+01
      4.852  0.1271E+00  0.8214E+01
      5.007  0.5189E-01  0.8222E+01
      5.162  0.3128E+00  0.8271E+01
      5.317  0.1006E+01  0.8427E+01
      5.472  0.1011E+01  0.8583E+01
      5.627  0.3950E+01  0.9196E+01
      5.782  0.1791E+01  0.9473E+01
      5.937  0.3640E+00  0.9530E+01
      6.093 -0.1834E-01  0.9527E+01
      6.248  0.3694E+00  0.9584E+01
      6.403  0.4720E+00  0.9657E+01
      6.558  0.1649E+01  0.9913E+01
      6.713  0.3448E+01  0.1045E+02
      6.868  0.3032E+01  0.1092E+02
      7.023  0.5592E-01  0.1093E+02
      7.178 -0.1613E-03  0.1093E+02
      7.333  0.1137E-01  0.1093E+02
      7.488  0.2383E+01  0.1130E+02
      7.643  0.1737E+01  0.1157E+02
      7.798  0.1688E+01  0.1183E+02
      7.953  0.2170E+01  0.1216E+02
      8.108  0.4881E+00  0.1224E+02
      8.263  0.1352E+01  0.1245E+02
      8.418  0.1412E+01  0.1267E+02
      8.573  0.2516E+01  0.1306E+02
      8.728  0.1411E+01  0.1328E+02
      8.883  0.1966E+01  0.1358E+02
      9.038  0.8779E+00  0.1372E+02
      9.193  0.1506E+01  0.1395E+02
      9.348 -0.6121E-01  0.1394E+02
      9.503  0.9614E+00  0.1409E+02
      9.658  0.1438E+01  0.1431E+02
      9.813  0.1692E+01  0.1458E+02
      9.968  0.6384E+00  0.1467E+02
     10.123  0.6727E+00  0.1478E+02
     10.278  0.2396E+01  0.1515E+02
     10.433  0.1162E+01  0.1533E+02
     10.588  0.1711E+01  0.1560E+02
     10.743  0.1853E+01  0.1588E+02
     10.898  0.5668E+00  0.1597E+02
     11.053  0.2033E+01  0.1629E+02
     11.208  0.2112E+01  0.1661E+02
     11.363  0.7538E+00  0.1673E+02
     11.518  0.5491E+00  0.1682E+02
     11.673  0.1368E+01  0.1703E+02
     11.828  0.2229E+01  0.1737E+02
     11.983  0.6388E+00  0.1747E+02
     12.138  0.6423E+00  0.1757E+02
     12.293  0.1617E+01  0.1782E+02
     12.448  0.2471E+01  0.1821E+02
     12.603  0.1631E+01  0.1846E+02
     12.758  0.1500E+01  0.1869E+02
     12.913  0.4241E+00  0.1876E+02
     13.068  0.4806E+00  0.1883E+02
     13.223  0.4018E+00  0.1889E+02
     13.378  0.3838E+01  0.1949E+02
     13.533  0.5906E-01  0.1950E+02
     13.688  0.1814E+01  0.1978E+02
     13.843  0.1093E+01  0.1995E+02
     13.998  0.3193E+01  0.2044E+02
     14.153  0.2116E+01  0.2077E+02
     14.308 -0.3825E-01  0.2076E+02
     14.463  0.1935E+01  0.2106E+02
     14.618  0.9537E+00  0.2121E+02
     14.773  0.5205E+00  0.2129E+02
     14.928  0.2344E+01  0.2166E+02
     15.083  0.3283E+01  0.2217E+02
     15.238  0.4033E+01  0.2279E+02
     15.393  0.1712E+01  0.2306E+02
     15.548  0.4407E+01  0.2374E+02
     15.703  0.1718E+01  0.2401E+02
     15.858  0.1659E+01  0.2426E+02
     16.013  0.1598E+01  0.2451E+02
     16.168  0.1673E+01  0.2477E+02
     16.323  0.1471E-01  0.2477E+02
     16.478  0.1631E+01  0.2502E+02
     16.633  0.5527E+00  0.2511E+02
     16.788  0.1303E+01  0.2531E+02
     16.943  0.8573E+00  0.2545E+02
     17.098  0.1975E+00  0.2548E+02
     17.253  0.1407E+01  0.2569E+02
     17.408  0.3653E+00  0.2575E+02
     17.563  0.8481E+00  0.2588E+02
     17.718  0.2727E+01  0.2631E+02
     17.874  0.2288E+01  0.2666E+02
     18.029  0.3212E+01  0.2716E+02
     18.184  0.4509E+01  0.2786E+02
     18.339  0.4095E+01  0.2849E+02
     18.494  0.2496E+01  0.2888E+02
     18.649  0.1123E+01  0.2905E+02
     18.804  0.4067E+01  0.2968E+02
     18.959  0.1274E+01  0.2988E+02
     19.114  0.1659E+01  0.3014E+02
     19.269  0.1052E+01  0.3030E+02
     19.424  0.1079E+01  0.3047E+02
     19.579  0.1870E+01  0.3076E+02
     19.734  0.3505E+01  0.3130E+02
     19.889  0.3305E+01  0.3181E+02
     20.044  0.1189E+01  0.3200E+02
     20.199  0.1604E+01  0.3225E+02
     20.354  0.1561E+01  0.3249E+02
     20.509  0.1142E+01  0.3267E+02
     20.664  0.1519E+01  0.3290E+02
     20.819  0.9151E+00  0.3304E+02
     20.974  0.1937E+01  0.3334E+02
     21.129  0.1083E+01  0.3351E+02
     21.284  0.1031E+01  0.3367E+02
     21.439  0.3346E+01  0.3419E+02
     21.594  0.2662E+01  0.3460E+02
     21.749  0.8949E+00  0.3474E+02
     21.904  0.1746E+01  0.3501E+02
     22.059  0.6050E+01  0.3595E+02
     22.214  0.1357E+01  0.3616E+02
     22.369  0.1067E+01  0.3633E+02
     22.524  0.5023E+01  0.3710E+02
     22.679  0.2778E+01  0.3753E+02
     22.834  0.1060E+01  0.3770E+02
     22.989  0.2272E+01  0.3805E+02
     23.144  0.3538E+01  0.3860E+02
     23.299  0.5664E+01  0.3948E+02
     23.454  0.1332E+01  0.3968E+02
     23.609  0.2725E+01  0.4011E+02
     23.764 -0.6222E-01  0.4010E+02
     23.919  0.2337E+01  0.4046E+02
     24.074  0.2453E+01  0.4084E+02
     24.229  0.1525E+01  0.4108E+02
     24.384  0.1658E+01  0.4133E+02
     24.539  0.2110E+01  0.4166E+02
     24.694  0.2410E+01  0.4203E+02
     24.849  0.6180E+00  0.4213E+02
     25.004  0.1936E+01  0.4243E+02
     25.159  0.2139E+01  0.4276E+02
     25.314  0.2359E+01  0.4313E+02
     25.469  0.2055E+01  0.4344E+02
     25.624  0.1729E+01  0.4371E+02
     25.779  0.4329E+01  0.4438E+02
     25.934  0.2784E+01  0.4482E+02
     26.089  0.1600E+01  0.4506E+02
     26.244  0.3669E+01  0.4563E+02
     26.399  0.2912E+01  0.4608E+02
     26.554  0.4642E+01  0.4680E+02
     26.709  0.1877E+01  0.4709E+02
     26.864  0.2876E+01  0.4754E+02
     27.019  0.3172E+01  0.4803E+02
     27.174  0.2481E+01  0.4842E+02
     27.329  0.1656E+01  0.4867E+02
     27.484  0.2403E+01  0.4905E+02
     27.639  0.1979E+01  0.4935E+02
     27.794  0.1016E+01  0.4951E+02
     27.949  0.1129E+01  0.4968E+02
     28.104  0.4763E+01  0.5042E+02
     28.259  0.3086E+01  0.5090E+02
     28.414  0.2633E+01  0.5131E+02
     28.569  0.4184E+01  0.5196E+02
     28.724  0.3969E+00  0.5202E+02
     28.879  0.1072E+01  0.5219E+02
     29.034  0.2062E+01  0.5251E+02
     29.189  0.6994E-01  0.5252E+02
     29.344  0.2869E+01  0.5296E+02
     29.499  0.3766E+01  0.5354E+02
     29.655  0.9439E+00  0.5369E+02
     29.810  0.3134E+01  0.5418E+02
     29.965  0.2326E+01  0.5454E+02
     30.120  0.1177E+01  0.5472E+02
     30.275  0.1258E+01  0.5491E+02
     30.430  0.9365E+00  0.5506E+02
     30.585  0.1757E+01  0.5533E+02
     30.740  0.4694E+00  0.5541E+02
     30.895  0.9488E+00  0.5555E+02
     31.050  0.8873E-01  0.5557E+02
     31.205  0.7164E+00  0.5568E+02
     31.360  0.5218E+00  0.5576E+02
     31.515  0.2185E+00  0.5579E+02
     31.670  0.8965E-01  0.5581E+02
     31.825  0.5558E+00  0.5589E+02
     31.980  0.1769E+00  0.5592E+02
     32.135  0.1557E+00  0.5594E+02
     32.290  0.2478E+00  0.5598E+02
     32.445 -0.2289E-02  0.5598E+02
     32.600  0.0000E+00  0.5598E+02
     32.755  0.0000E+00  0.5598E+02
     32.910 -0.2701E-29  0.5598E+02
     33.065 -0.6407E-12  0.5598E+02
     33.220 -0.3389E-03  0.5598E+02
     33.375  0.3704E-01  0.5599E+02
     33.530  0.5380E-01  0.5600E+02
     33.685 -0.1910E-02  0.5600E+02
     33.840  0.3114E-01  0.5600E+02
     33.995 -0.2604E-03  0.5600E+02
     34.150  0.0000E+00  0.5600E+02
     34.305  0.0000E+00  0.5600E+02
     34.460  0.0000E+00  0.5600E+02
     34.615  0.0000E+00  0.5600E+02
     34.770  0.0000E+00  0.5600E+02
     34.925  0.0000E+00  0.5600E+02
     35.080  0.0000E+00  0.5600E+02
     35.235  0.0000E+00  0.5600E+02
     35.390  0.0000E+00  0.5600E+02
     35.545  0.0000E+00  0.5600E+02
     35.700  0.0000E+00  0.5600E+02
     35.855  0.0000E+00  0.5600E+02
