   2   2   0   0
  0.2779610E+02  0.4283936E-09  0.4283936E-09  0.4283936E-09  0.5000000E-15
  1.000000000000000E-004
  CAR 
 unknown system                          
     16.89450434     -9.75439823  301      3.37790382      1.00000000
     -9.754  0.0000E+00  0.0000E+00
     -9.666  0.0000E+00  0.0000E+00
     -9.577  0.0000E+00  0.0000E+00
     -9.488  0.0000E+00  0.0000E+00
     -9.399  0.0000E+00  0.0000E+00
     -9.310  0.0000E+00  0.0000E+00
     -9.221  0.0000E+00  0.0000E+00
     -9.133  0.0000E+00  0.0000E+00
     -9.044  0.0000E+00  0.0000E+00
     -8.955  0.0000E+00  0.0000E+00
     -8.866  0.0000E+00  0.0000E+00
     -8.777  0.1149E-11  0.1021E-12
     -8.688  0.1291E-05  0.1147E-06
     -8.600  0.3604E-02  0.3203E-03
     -8.511  0.5020E-01  0.4779E-02
     -8.422  0.3914E-01  0.8257E-02
     -8.333  0.4799E+00  0.5089E-01
     -8.244  0.3937E+00  0.8586E-01
     -8.155  0.3330E-01  0.8882E-01
     -8.067  0.5136E+00  0.1344E+00
     -7.978  0.3409E+00  0.1647E+00
     -7.889  0.1436E+01  0.2923E+00
     -7.800  0.5775E+00  0.3436E+00
     -7.711  0.2382E-01  0.3457E+00
     -7.622  0.3775E+00  0.3793E+00
     -7.534  0.1469E+01  0.5097E+00
     -7.445  0.1628E+01  0.6543E+00
     -7.356  0.1653E+01  0.8012E+00
     -7.267  0.5537E+00  0.8504E+00
     -7.178  0.1847E+01  0.1014E+01
     -7.090  0.2276E+01  0.1217E+01
     -7.001  0.2661E+01  0.1453E+01
     -6.912  0.1328E+01  0.1571E+01
     -6.823  0.2598E+01  0.1802E+01
     -6.734  0.1983E+01  0.1978E+01
     -6.645  0.2493E+00  0.2000E+01
     -6.557  0.3678E-03  0.2000E+01
     -6.468  0.2130E-08  0.2000E+01
     -6.379  0.0000E+00  0.2000E+01
     -6.290  0.0000E+00  0.2000E+01
     -6.201  0.0000E+00  0.2000E+01
     -6.112  0.0000E+00  0.2000E+01
     -6.024  0.0000E+00  0.2000E+01
     -5.935  0.0000E+00  0.2000E+01
     -5.846  0.0000E+00  0.2000E+01
     -5.757  0.0000E+00  0.2000E+01
     -5.668  0.0000E+00  0.2000E+01
     -5.579  0.0000E+00  0.2000E+01
     -5.491  0.0000E+00  0.2000E+01
     -5.402  0.0000E+00  0.2000E+01
     -5.313  0.0000E+00  0.2000E+01
     -5.224  0.0000E+00  0.2000E+01
     -5.135  0.0000E+00  0.2000E+01
     -5.046  0.0000E+00  0.2000E+01
     -4.958  0.0000E+00  0.2000E+01
     -4.869  0.0000E+00  0.2000E+01
     -4.780  0.0000E+00  0.2000E+01
     -4.691  0.0000E+00  0.2000E+01
     -4.602  0.0000E+00  0.2000E+01
     -4.513  0.0000E+00  0.2000E+01
     -4.425  0.0000E+00  0.2000E+01
     -4.336  0.0000E+00  0.2000E+01
     -4.247  0.0000E+00  0.2000E+01
     -4.158  0.0000E+00  0.2000E+01
     -4.069  0.0000E+00  0.2000E+01
     -3.980  0.0000E+00  0.2000E+01
     -3.892  0.0000E+00  0.2000E+01
     -3.803  0.0000E+00  0.2000E+01
     -3.714  0.0000E+00  0.2000E+01
     -3.625  0.0000E+00  0.2000E+01
     -3.536  0.0000E+00  0.2000E+01
     -3.447  0.0000E+00  0.2000E+01
     -3.359  0.0000E+00  0.2000E+01
     -3.270  0.0000E+00  0.2000E+01
     -3.181  0.0000E+00  0.2000E+01
     -3.092  0.0000E+00  0.2000E+01
     -3.003  0.0000E+00  0.2000E+01
     -2.915  0.0000E+00  0.2000E+01
     -2.826  0.0000E+00  0.2000E+01
     -2.737  0.9099E-13  0.2000E+01
     -2.648  0.4614E-06  0.2000E+01
     -2.559  0.5778E-02  0.2001E+01
     -2.470  0.3558E+00  0.2032E+01
     -2.382  0.8696E+00  0.2109E+01
     -2.293  0.3893E+01  0.2455E+01
     -2.204  0.3020E+01  0.2723E+01
     -2.115  0.2384E+01  0.2935E+01
     -2.026  0.8346E+00  0.3009E+01
     -1.937  0.6167E+00  0.3064E+01
     -1.849  0.1526E+01  0.3200E+01
     -1.760  0.1489E+01  0.3332E+01
     -1.671  0.1026E+00  0.3341E+01
     -1.582  0.6360E-03  0.3341E+01
     -1.493  0.2742E+00  0.3366E+01
     -1.404  0.1234E+01  0.3475E+01
     -1.316  0.1133E+01  0.3576E+01
     -1.227  0.5055E+00  0.3621E+01
     -1.138  0.3149E-02  0.3621E+01
     -1.049  0.2152E-05  0.3621E+01
     -0.960  0.1741E-01  0.3623E+01
     -0.871  0.5963E+00  0.3676E+01
     -0.783  0.3038E+00  0.3702E+01
     -0.694  0.1489E-02  0.3703E+01
     -0.605  0.2154E-05  0.3703E+01
     -0.516  0.2291E-01  0.3705E+01
     -0.427  0.9669E+00  0.3791E+01
     -0.338  0.5820E+00  0.3842E+01
     -0.250  0.3588E-02  0.3843E+01
     -0.161  0.2928E-06  0.3843E+01
     -0.072  0.5071E-02  0.3843E+01
      0.017  0.5397E+00  0.3891E+01
      0.106  0.1908E+01  0.4060E+01
      0.195  0.2014E+01  0.4239E+01
      0.283  0.2596E+00  0.4262E+01
      0.372  0.4396E+00  0.4301E+01
      0.461  0.2990E+01  0.4567E+01
      0.550  0.1862E+01  0.4732E+01
      0.639  0.2223E+00  0.4752E+01
      0.728  0.5504E-03  0.4752E+01
      0.816  0.2139E+00  0.4771E+01
      0.905  0.2690E+01  0.5010E+01
      0.994  0.3274E+01  0.5301E+01
      1.083  0.1770E+01  0.5458E+01
      1.172  0.2426E+01  0.5674E+01
      1.260  0.1406E+01  0.5799E+01
      1.349  0.4877E+00  0.5842E+01
      1.438  0.1981E+01  0.6018E+01
      1.527  0.3817E+01  0.6357E+01
      1.616  0.2084E+01  0.6542E+01
      1.705  0.4264E+00  0.6580E+01
      1.793  0.3783E-01  0.6583E+01
      1.882  0.5946E+00  0.6636E+01
      1.971  0.3495E+01  0.6947E+01
      2.060  0.2549E+01  0.7173E+01
      2.149  0.1423E+01  0.7299E+01
      2.238  0.1697E+01  0.7450E+01
      2.326  0.2163E+00  0.7469E+01
      2.415  0.1779E+00  0.7485E+01
      2.504  0.1958E+01  0.7659E+01
      2.593  0.8643E+00  0.7736E+01
      2.682  0.3030E+00  0.7763E+01
      2.771  0.5967E+00  0.7816E+01
      2.859  0.1147E+00  0.7826E+01
      2.948  0.8186E+00  0.7899E+01
      3.037  0.4598E+00  0.7940E+01
      3.126  0.2566E+00  0.7962E+01
      3.215  0.3485E+00  0.7993E+01
      3.304  0.1195E-01  0.7994E+01
      3.392  0.8419E-01  0.8002E+01
      3.481  0.4453E-01  0.8006E+01
      3.570  0.2281E-03  0.8006E+01
      3.659  0.3601E-08  0.8006E+01
      3.748  0.1166E-15  0.8006E+01
      3.837  0.0000E+00  0.8006E+01
      3.925  0.0000E+00  0.8006E+01
      4.014  0.1446E-13  0.8006E+01
      4.103  0.1453E-06  0.8006E+01
      4.192  0.3313E-02  0.8006E+01
      4.281  0.2631E+00  0.8029E+01
      4.370  0.2582E+00  0.8052E+01
      4.458  0.3665E+00  0.8085E+01
      4.547  0.6631E+00  0.8144E+01
      4.636  0.2120E-01  0.8146E+01
      4.725  0.4845E-05  0.8146E+01
      4.814  0.9374E-02  0.8147E+01
      4.902  0.2673E+00  0.8170E+01
      4.991  0.1167E+00  0.8181E+01
      5.080  0.2600E-01  0.8183E+01
      5.169  0.5440E+00  0.8231E+01
      5.258  0.8474E+00  0.8307E+01
      5.347  0.1810E+01  0.8467E+01
      5.435  0.3734E+01  0.8799E+01
      5.524  0.2473E+01  0.9019E+01
      5.613  0.2219E+01  0.9216E+01
      5.702  0.5538E+00  0.9265E+01
      5.791  0.9374E-01  0.9273E+01
      5.880  0.6013E+00  0.9327E+01
      5.968  0.1194E+00  0.9337E+01
      6.057  0.8166E+00  0.9410E+01
      6.146  0.1163E+01  0.9513E+01
      6.235  0.7821E+00  0.9583E+01
      6.324  0.1679E+01  0.9732E+01
      6.413  0.4263E+01  0.1011E+02
      6.501  0.2852E+01  0.1036E+02
      6.590  0.1712E+01  0.1052E+02
      6.679  0.1808E+01  0.1068E+02
      6.768  0.6470E+00  0.1073E+02
      6.857  0.1231E-01  0.1074E+02
      6.946  0.5178E-01  0.1074E+02
      7.034  0.8089E-02  0.1074E+02
      7.123  0.1099E-04  0.1074E+02
      7.212  0.2152E-01  0.1074E+02
      7.301  0.1168E+01  0.1085E+02
      7.390  0.2730E+01  0.1109E+02
      7.479  0.2135E+01  0.1128E+02
      7.567  0.6781E+00  0.1134E+02
      7.656  0.1479E+01  0.1147E+02
      7.745  0.1068E+01  0.1156E+02
      7.834  0.1227E+01  0.1167E+02
      7.923  0.3406E+01  0.1198E+02
      8.012  0.1446E+01  0.1210E+02
      8.100  0.1105E+01  0.1220E+02
      8.189  0.5392E+00  0.1225E+02
      8.278  0.2232E+01  0.1245E+02
      8.367  0.1264E+01  0.1256E+02
      8.456  0.1100E+01  0.1266E+02
      8.545  0.1808E+01  0.1282E+02
      8.633  0.2648E+01  0.1305E+02
      8.722  0.1936E+01  0.1323E+02
      8.811  0.2573E+01  0.1346E+02
      8.900  0.2541E+01  0.1368E+02
      8.989  0.1362E+01  0.1380E+02
      9.077  0.7224E+00  0.1387E+02
      9.166  0.3563E+00  0.1390E+02
      9.255  0.1416E+01  0.1402E+02
      9.344  0.1432E+01  0.1415E+02
      9.433  0.6384E+00  0.1421E+02
      9.522  0.9700E+00  0.1429E+02
      9.610  0.1545E+01  0.1443E+02
      9.699  0.9703E+00  0.1452E+02
      9.788  0.1522E+01  0.1465E+02
      9.877  0.1361E+01  0.1477E+02
      9.966  0.1049E+01  0.1487E+02
     10.055  0.1599E+01  0.1501E+02
     10.143  0.9115E+00  0.1509E+02
     10.232  0.8683E+00  0.1517E+02
     10.321  0.2128E+01  0.1536E+02
     10.410  0.1502E+01  0.1549E+02
     10.499  0.1971E+01  0.1566E+02
     10.588  0.3240E+00  0.1569E+02
     10.676  0.3407E+00  0.1572E+02
     10.765  0.1142E+01  0.1582E+02
     10.854  0.4615E+00  0.1587E+02
     10.943  0.2951E-01  0.1587E+02
     11.032  0.5020E+00  0.1591E+02
     11.121  0.2581E+00  0.1594E+02
     11.209  0.1933E+00  0.1595E+02
     11.298  0.1976E+01  0.1613E+02
     11.387  0.2673E+01  0.1637E+02
     11.476  0.1876E+01  0.1653E+02
     11.565  0.1748E+01  0.1669E+02
     11.654  0.2129E+01  0.1688E+02
     11.742  0.1855E+01  0.1704E+02
     11.831  0.1130E+01  0.1714E+02
     11.920  0.2360E+01  0.1735E+02
     12.009  0.2685E+01  0.1759E+02
     12.098  0.1470E+01  0.1772E+02
     12.187  0.1320E+01  0.1784E+02
     12.275  0.3040E+01  0.1811E+02
     12.364  0.1655E+01  0.1826E+02
     12.453  0.7230E+00  0.1832E+02
     12.542  0.7987E+00  0.1839E+02
     12.631  0.6949E+00  0.1845E+02
     12.720  0.3873E-01  0.1846E+02
     12.808  0.8552E-01  0.1846E+02
     12.897  0.6776E+00  0.1852E+02
     12.986  0.1516E+01  0.1866E+02
     13.075  0.2029E+01  0.1884E+02
     13.164  0.1447E+01  0.1897E+02
     13.252  0.2336E+01  0.1917E+02
     13.341  0.1292E+01  0.1929E+02
     13.430  0.1478E+01  0.1942E+02
     13.519  0.1268E+01  0.1953E+02
     13.608  0.5208E+00  0.1958E+02
     13.697  0.1210E+01  0.1969E+02
     13.785  0.7877E+00  0.1976E+02
     13.874  0.8423E+00  0.1983E+02
     13.963  0.1725E+01  0.1998E+02
     14.052  0.4932E+00  0.2003E+02
     14.141  0.6218E+00  0.2008E+02
     14.230  0.8705E+00  0.2016E+02
     14.318  0.7544E+00  0.2023E+02
     14.407  0.7535E+00  0.2029E+02
     14.496  0.1882E+01  0.2046E+02
     14.585  0.1577E+01  0.2060E+02
     14.674  0.1465E+00  0.2062E+02
     14.763  0.1026E-03  0.2062E+02
     14.851  0.1734E-02  0.2062E+02
     14.940  0.1363E+00  0.2063E+02
     15.029  0.6403E+00  0.2068E+02
     15.118  0.2487E+00  0.2071E+02
     15.207  0.6035E+00  0.2076E+02
     15.296  0.3674E+00  0.2079E+02
     15.384  0.1033E+01  0.2088E+02
     15.473  0.3117E+00  0.2091E+02
     15.562  0.2566E+00  0.2093E+02
     15.651  0.5555E+00  0.2098E+02
     15.740  0.1667E+00  0.2100E+02
     15.829  0.1081E-01  0.2100E+02
     15.917  0.3873E-05  0.2100E+02
     16.006  0.3447E-11  0.2100E+02
     16.095  0.0000E+00  0.2100E+02
     16.184  0.0000E+00  0.2100E+02
     16.273  0.0000E+00  0.2100E+02
     16.362  0.0000E+00  0.2100E+02
     16.450  0.0000E+00  0.2100E+02
     16.539  0.0000E+00  0.2100E+02
     16.628  0.0000E+00  0.2100E+02
     16.717  0.0000E+00  0.2100E+02
     16.806  0.0000E+00  0.2100E+02
     16.895  0.0000E+00  0.2100E+02
