   2   2   0   0
  0.2779610E+02  0.4283936E-09  0.4283936E-09  0.4283936E-09  0.5000000E-15
  1.000000000000000E-004
  CAR 
 unknown system                          
     17.30179851     -9.77103017  301      3.38043413      1.00000000
     -9.771  0.0000E+00  0.0000E+00
     -9.681  0.0000E+00  0.0000E+00
     -9.591  0.0000E+00  0.0000E+00
     -9.500  0.0000E+00  0.0000E+00
     -9.410  0.0000E+00  0.0000E+00
     -9.320  0.0000E+00  0.0000E+00
     -9.230  0.0000E+00  0.0000E+00
     -9.139  0.0000E+00  0.0000E+00
     -9.049  0.0000E+00  0.0000E+00
     -8.959 -0.5927E-31 -0.5348E-32
     -8.869 -0.2349E-19 -0.2120E-20
     -8.778 -0.1219E-10 -0.1100E-11
     -8.688 -0.7812E-05 -0.7050E-06
     -8.598 -0.2219E-02 -0.2010E-03
     -8.508  0.6313E-01  0.5496E-02
     -8.417 -0.1434E-01  0.4201E-02
     -8.327  0.5601E+00  0.5474E-01
     -8.237  0.3767E+00  0.8873E-01
     -8.147 -0.4018E-01  0.8511E-01
     -8.056  0.6847E+00  0.1469E+00
     -7.966  0.7442E-01  0.1536E+00
     -7.876  0.1906E+01  0.3256E+00
     -7.786  0.2097E+00  0.3445E+00
     -7.695 -0.1166E-01  0.3435E+00
     -7.605  0.3867E+00  0.3784E+00
     -7.515  0.1796E+01  0.5405E+00
     -7.425  0.1356E+01  0.6628E+00
     -7.334  0.2024E+01  0.8455E+00
     -7.244 -0.6287E-01  0.8398E+00
     -7.154  0.2800E+01  0.1092E+01
     -7.064  0.1967E+01  0.1270E+01
     -6.974  0.2292E+01  0.1477E+01
     -6.883  0.1870E+01  0.1646E+01
     -6.793  0.2374E+01  0.1860E+01
     -6.703  0.1610E+01  0.2005E+01
     -6.613 -0.5562E-01  0.2000E+01
     -6.522 -0.9705E-04  0.2000E+01
     -6.432 -0.1532E-09  0.2000E+01
     -6.342  0.0000E+00  0.2000E+01
     -6.252  0.0000E+00  0.2000E+01
     -6.161  0.0000E+00  0.2000E+01
     -6.071  0.0000E+00  0.2000E+01
     -5.981  0.0000E+00  0.2000E+01
     -5.891  0.0000E+00  0.2000E+01
     -5.800  0.0000E+00  0.2000E+01
     -5.710  0.0000E+00  0.2000E+01
     -5.620  0.0000E+00  0.2000E+01
     -5.530  0.0000E+00  0.2000E+01
     -5.439  0.0000E+00  0.2000E+01
     -5.349  0.0000E+00  0.2000E+01
     -5.259  0.0000E+00  0.2000E+01
     -5.169  0.0000E+00  0.2000E+01
     -5.078  0.0000E+00  0.2000E+01
     -4.988  0.0000E+00  0.2000E+01
     -4.898  0.0000E+00  0.2000E+01
     -4.808  0.0000E+00  0.2000E+01
     -4.717  0.0000E+00  0.2000E+01
     -4.627  0.0000E+00  0.2000E+01
     -4.537  0.0000E+00  0.2000E+01
     -4.447  0.0000E+00  0.2000E+01
     -4.356  0.0000E+00  0.2000E+01
     -4.266  0.0000E+00  0.2000E+01
     -4.176  0.0000E+00  0.2000E+01
     -4.086  0.0000E+00  0.2000E+01
     -3.995  0.0000E+00  0.2000E+01
     -3.905  0.0000E+00  0.2000E+01
     -3.815  0.0000E+00  0.2000E+01
     -3.725  0.0000E+00  0.2000E+01
     -3.635  0.0000E+00  0.2000E+01
     -3.544  0.0000E+00  0.2000E+01
     -3.454  0.0000E+00  0.2000E+01
     -3.364  0.0000E+00  0.2000E+01
     -3.274  0.0000E+00  0.2000E+01
     -3.183  0.0000E+00  0.2000E+01
     -3.093  0.0000E+00  0.2000E+01
     -3.003  0.0000E+00  0.2000E+01
     -2.913 -0.1576E-32  0.2000E+01
     -2.822 -0.2002E-20  0.2000E+01
     -2.732 -0.3381E-11  0.2000E+01
     -2.642 -0.7372E-05  0.2000E+01
     -2.552 -0.1380E-01  0.1999E+01
     -2.461  0.4176E+00  0.2036E+01
     -2.371  0.5941E+00  0.2090E+01
     -2.281  0.4760E+01  0.2520E+01
     -2.191  0.2356E+01  0.2732E+01
     -2.100  0.2738E+01  0.2979E+01
     -2.010  0.3956E+00  0.3015E+01
     -1.920  0.5376E+00  0.3063E+01
     -1.830  0.1916E+01  0.3236E+01
     -1.739  0.1205E+01  0.3345E+01
     -1.649 -0.4408E-01  0.3341E+01
     -1.559 -0.1208E-01  0.3340E+01
     -1.469  0.4912E+00  0.3384E+01
     -1.378  0.1098E+01  0.3483E+01
     -1.288  0.1493E+01  0.3618E+01
     -1.198  0.3317E-01  0.3621E+01
     -1.108 -0.1398E-02  0.3621E+01
     -1.017 -0.4904E-03  0.3621E+01
     -0.927 -0.2685E-02  0.3621E+01
     -0.837  0.9239E+00  0.3704E+01
     -0.747 -0.1585E-01  0.3703E+01
     -0.657 -0.3254E-03  0.3703E+01
     -0.566 -0.1143E-02  0.3703E+01
     -0.476  0.1892E-01  0.3704E+01
     -0.386  0.1573E+01  0.3846E+01
     -0.296 -0.3940E-01  0.3843E+01
     -0.205 -0.4008E-03  0.3843E+01
     -0.115 -0.3940E-03  0.3843E+01
     -0.025 -0.2720E-01  0.3840E+01
      0.065  0.1550E+01  0.3980E+01
      0.156  0.2167E+01  0.4176E+01
      0.246  0.9908E+00  0.4265E+01
      0.336 -0.1110E+00  0.4255E+01
      0.426  0.2340E+01  0.4466E+01
      0.517  0.2533E+01  0.4695E+01
      0.607  0.6552E+00  0.4754E+01
      0.697 -0.1827E-01  0.4752E+01
      0.787 -0.4668E-01  0.4748E+01
      0.878  0.1401E+01  0.4874E+01
      0.968  0.4444E+01  0.5275E+01
      1.058  0.1168E+01  0.5381E+01
      1.148  0.2972E+01  0.5649E+01
      1.239  0.1540E+01  0.5788E+01
      1.329  0.2362E+00  0.5809E+01
      1.419  0.1724E+01  0.5965E+01
      1.509  0.3301E+01  0.6263E+01
      1.600  0.3086E+01  0.6541E+01
      1.690  0.4382E+00  0.6581E+01
      1.780  0.2305E-01  0.6583E+01
      1.870  0.3393E-01  0.6586E+01
      1.961  0.3578E+01  0.6909E+01
      2.051  0.2697E+01  0.7152E+01
      2.141  0.1438E+01  0.7282E+01
      2.231  0.2009E+01  0.7463E+01
      2.321  0.6923E-01  0.7470E+01
      2.412 -0.4655E-01  0.7465E+01
      2.502  0.2225E+01  0.7666E+01
      2.592  0.8090E+00  0.7739E+01
      2.682  0.1882E+00  0.7756E+01
      2.773  0.7197E+00  0.7821E+01
      2.863 -0.2339E-01  0.7819E+01
      2.953  0.9778E+00  0.7907E+01
      3.043  0.3697E+00  0.7941E+01
      3.134  0.2564E+00  0.7964E+01
      3.224  0.3499E+00  0.7995E+01
      3.314 -0.1591E-01  0.7994E+01
      3.404  0.1154E+00  0.8004E+01
      3.495  0.1863E-01  0.8006E+01
      3.585 -0.3711E-03  0.8006E+01
      3.675 -0.7673E-08  0.8006E+01
      3.765 -0.1722E-15  0.8006E+01
      3.856 -0.3844E-31  0.8006E+01
      3.946 -0.2629E-19  0.8006E+01
      4.036 -0.2370E-10  0.8006E+01
      4.126 -0.2679E-04  0.8006E+01
      4.217 -0.1791E-01  0.8004E+01
      4.307  0.4695E+00  0.8047E+01
      4.397  0.4075E-01  0.8050E+01
      4.487  0.7469E+00  0.8118E+01
      4.578  0.3191E+00  0.8146E+01
      4.668 -0.7634E-02  0.8146E+01
      4.758 -0.3649E-03  0.8146E+01
      4.848  0.1064E-01  0.8147E+01
      4.939  0.3892E+00  0.8182E+01
      5.029 -0.1355E-01  0.8181E+01
      5.119  0.7594E-01  0.8187E+01
      5.209  0.7335E+00  0.8254E+01
      5.300  0.1085E+01  0.8352E+01
      5.390  0.2466E+01  0.8574E+01
      5.480  0.4356E+01  0.8967E+01
      5.570  0.1641E+01  0.9115E+01
      5.660  0.1722E+01  0.9271E+01
      5.751 -0.7462E-01  0.9264E+01
      5.841  0.4472E+00  0.9304E+01
      5.931  0.3485E+00  0.9336E+01
      6.021  0.1949E+00  0.9353E+01
      6.112  0.1262E+01  0.9467E+01
      6.202  0.1185E+01  0.9574E+01
      6.292  0.3820E+00  0.9609E+01
      6.382  0.4412E+01  0.1001E+02
      6.473  0.3081E+01  0.1029E+02
      6.563  0.2082E+01  0.1047E+02
      6.653  0.1731E+01  0.1063E+02
      6.743  0.1213E+01  0.1074E+02
      6.834 -0.4403E-01  0.1073E+02
      6.924  0.5189E-01  0.1074E+02
      7.014  0.1486E-01  0.1074E+02
      7.104 -0.3094E-03  0.1074E+02
      7.195 -0.1412E-01  0.1074E+02
      7.285  0.5164E+00  0.1079E+02
      7.375  0.2720E+01  0.1103E+02
      7.465  0.2837E+01  0.1129E+02
      7.556  0.2502E+00  0.1131E+02
      7.646  0.1720E+01  0.1147E+02
      7.736  0.1067E+01  0.1156E+02
      7.826  0.5474E+00  0.1161E+02
      7.917  0.4052E+01  0.1198E+02
      8.007  0.1415E+01  0.1210E+02
      8.097  0.1152E+01  0.1221E+02
      8.187  0.2098E+00  0.1223E+02
      8.278  0.2656E+01  0.1247E+02
      8.368  0.1027E+01  0.1256E+02
      8.458  0.1009E+01  0.1265E+02
      8.548  0.1865E+01  0.1282E+02
      8.638  0.2964E+01  0.1309E+02
      8.729  0.1690E+01  0.1324E+02
      8.819  0.2528E+01  0.1347E+02
      8.909  0.2651E+01  0.1371E+02
      8.999  0.1360E+01  0.1383E+02
      9.090  0.4612E+00  0.1387E+02
      9.180  0.2282E+00  0.1389E+02
      9.270  0.1808E+01  0.1405E+02
      9.360  0.1296E+01  0.1417E+02
      9.451  0.3884E+00  0.1421E+02
      9.541  0.1293E+01  0.1432E+02
      9.631  0.1481E+01  0.1446E+02
      9.721  0.9238E+00  0.1454E+02
      9.812  0.1577E+01  0.1468E+02
      9.902  0.1549E+01  0.1482E+02
      9.992  0.5417E+00  0.1487E+02
     10.082  0.2188E+01  0.1507E+02
     10.173  0.2430E+00  0.1509E+02
     10.263  0.1529E+01  0.1523E+02
     10.353  0.1864E+01  0.1540E+02
     10.443  0.1908E+01  0.1557E+02
     10.534  0.1328E+01  0.1569E+02
     10.624  0.2115E+00  0.1571E+02
     10.714  0.2761E+00  0.1573E+02
     10.804  0.1515E+01  0.1587E+02
     10.895 -0.3979E-01  0.1587E+02
     10.985  0.9600E-01  0.1587E+02
     11.075  0.6920E+00  0.1594E+02
     11.165 -0.3621E-01  0.1593E+02
     11.256  0.8227E+00  0.1601E+02
     11.346  0.2706E+01  0.1625E+02
     11.436  0.2081E+01  0.1644E+02
     11.526  0.1732E+01  0.1660E+02
     11.617  0.2249E+01  0.1680E+02
     11.707  0.2300E+01  0.1701E+02
     11.797  0.7385E+00  0.1707E+02
     11.887  0.1630E+01  0.1722E+02
     11.977  0.2765E+01  0.1747E+02
     12.068  0.1951E+01  0.1765E+02
     12.158  0.8863E+00  0.1773E+02
     12.248  0.3226E+01  0.1802E+02
     12.338  0.1838E+01  0.1818E+02
     12.429  0.1266E+01  0.1830E+02
     12.519  0.5011E+00  0.1834E+02
     12.609  0.1214E+01  0.1845E+02
     12.699  0.3361E-01  0.1845E+02
     12.790  0.2979E-01  0.1846E+02
     12.880  0.4633E-01  0.1846E+02
     12.970  0.1014E+01  0.1855E+02
     13.060  0.1256E+01  0.1867E+02
     13.151  0.1124E+01  0.1877E+02
     13.241  0.2856E+01  0.1903E+02
     13.331  0.1132E+01  0.1913E+02
     13.421  0.1277E+01  0.1924E+02
     13.512  0.1484E+01  0.1938E+02
     13.602  0.7229E-01  0.1938E+02
     13.692  0.2084E+01  0.1957E+02
     13.782  0.1671E+01  0.1972E+02
     13.873 -0.2572E-02  0.1972E+02
     13.963  0.3780E+00  0.1976E+02
     14.053  0.1221E+01  0.1987E+02
     14.143  0.1019E+01  0.1996E+02
     14.234  0.1300E+01  0.2008E+02
     14.324  0.1497E+00  0.2009E+02
     14.414  0.8371E+00  0.2016E+02
     14.504  0.1412E+01  0.2029E+02
     14.595  0.1043E+01  0.2039E+02
     14.685  0.9989E+00  0.2048E+02
     14.775  0.2390E+00  0.2050E+02
     14.865  0.6810E+00  0.2056E+02
     14.955  0.2340E+00  0.2058E+02
     15.046 -0.7546E-02  0.2058E+02
     15.136  0.7313E-01  0.2059E+02
     15.226  0.8312E+00  0.2066E+02
     15.316  0.6836E-01  0.2067E+02
     15.407  0.2534E-01  0.2067E+02
     15.497  0.3425E+00  0.2070E+02
     15.587  0.1061E+01  0.2080E+02
     15.677  0.1163E+00  0.2081E+02
     15.768  0.1732E+00  0.2082E+02
     15.858  0.3057E+00  0.2085E+02
     15.948  0.8989E+00  0.2093E+02
     16.038  0.2692E-01  0.2093E+02
     16.129  0.7582E+00  0.2100E+02
     16.219 -0.2663E-01  0.2100E+02
     16.309 -0.9375E-04  0.2100E+02
     16.399 -0.1463E-09  0.2100E+02
     16.490  0.0000E+00  0.2100E+02
     16.580  0.0000E+00  0.2100E+02
     16.670  0.0000E+00  0.2100E+02
     16.760  0.0000E+00  0.2100E+02
     16.851  0.0000E+00  0.2100E+02
     16.941  0.0000E+00  0.2100E+02
     17.031  0.0000E+00  0.2100E+02
     17.121  0.0000E+00  0.2100E+02
     17.212  0.0000E+00  0.2100E+02
     17.302  0.0000E+00  0.2100E+02
