    2    2    1    1
  0.2779610E+02  0.4283936E-09  0.4283936E-09  0.4283936E-09  0.5000000E-15
  1.000000000000000E-004
  CAR 
 unknown system                          
      8     30     21
 
  0.0000000E+00  0.0000000E+00  0.0000000E+00  0.2915452E-02
    1       -8.540447   1.000000
    2       -8.540447   1.000000
    3        3.027612   1.000000
    4        3.027612   1.000000
    5        3.096595   1.000000
    6        3.096596   1.000000
    7        3.380434   0.507142
    8        3.380434   0.506635
    9        3.380434   0.503151
   10        3.380434   0.483071
   11        6.906544   0.000000
   12        6.906555   0.000000
   13        7.356237   0.000000
   14        7.356242   0.000000
   15        7.356246   0.000000
   16        7.356247   0.000000
   17       10.788930   0.000000
   18       10.788946   0.000000
   19       12.782443   0.000000
   20       12.798343   0.000000
   21       13.085459   0.000000
 
  0.1428571E+00  0.0000000E+00  0.0000000E+00  0.1166181E-01
    1       -8.361734   1.000000
    2       -8.361734   1.000000
    3        1.117984   1.000000
    4        1.117984   1.000000
    5        2.901190   1.000000
    6        2.901191   1.000000
    7        3.139364   1.000000
    8        3.146450   1.000000
    9        4.466187  -0.000000
   10        4.466189  -0.000000
   11        7.295532   0.000000
   12        7.295692   0.000000
   13        7.555804   0.000000
   14        7.556075   0.000000
   15        7.698062   0.000000
   16        7.698468   0.000000
   17       11.760841   0.000000
   18       11.803509   0.000000
   19       11.871868   0.000000
   20       11.874159   0.000000
   21       11.893333   0.000000
 
  0.2857143E+00  0.0000000E+00  0.0000000E+00  0.1166181E-01
    1       -7.882774   1.000000
    2       -7.882774   1.000000
    3       -0.885710   1.000000
    4       -0.885710   1.000000
    5        2.471390   1.000000
    6        2.471390   1.000000
    7        2.716798   1.000000
    8        2.723972   1.000000
    9        4.483019  -0.000000
   10        4.483019  -0.000000
   11        7.850727   0.000000
   12        7.850737   0.000000
   13        8.090354   0.000000
   14        8.093186   0.000000
   15        8.862596   0.000000
   16        8.862597   0.000000
   17       11.489898   0.000000
   18       11.551801   0.000000
   19       11.887855   0.000000
   20       11.892905   0.000000
   21       11.942778   0.000000
 
  0.4285714E+00  0.0000000E+00  0.0000000E+00  0.1166181E-01
    1       -7.366640   1.000000
    2       -7.366640   1.000000
    3       -2.235360   1.000000
    4       -2.235360   1.000000
    5        2.195010   1.000000
    6        2.195010   1.000000
    7        2.446619   1.000000
    8        2.449458   1.000000
    9        4.281517  -0.000000
   10        4.281517  -0.000000
   11        7.890457   0.000000
   12        7.890461   0.000000
   13        8.068085   0.000000
   14        8.068655   0.000000
   15       10.038453   0.000000
   16       10.038899   0.000000
   17       11.880168   0.000000
   18       11.892269   0.000000
   19       13.271480   0.000000
   20       13.333394   0.000000
   21       13.472950   0.000000
 
 -0.4285714E+00  0.0000000E+00  0.0000000E+00  0.1166181E-01
    1       -7.366640   1.000000
    2       -7.366640   1.000000
    3       -2.235360   1.000000
    4       -2.235360   1.000000
    5        2.195010   1.000000
    6        2.195010   1.000000
    7        2.446619   1.000000
    8        2.449458   1.000000
    9        4.281517  -0.000000
   10        4.281517  -0.000000
   11        7.890454   0.000000
   12        7.890476   0.000000
   13        8.068342   0.000000
   14        8.068400   0.000000
   15       10.038494   0.000000
   16       10.040187   0.000000
   17       11.879736   0.000000
   18       12.608030   0.000000
   19       13.269805   0.000000
   20       13.329549   0.000000
   21       13.390927   0.000000
 
 -0.2857143E+00  0.0000000E+00  0.0000000E+00  0.1166181E-01
    1       -7.882774   1.000000
    2       -7.882774   1.000000
    3       -0.885710   1.000000
    4       -0.885710   1.000000
    5        2.471390   1.000000
    6        2.471390   1.000000
    7        2.716798   1.000000
    8        2.723972   1.000000
    9        4.483019  -0.000000
   10        4.483025  -0.000000
   11        7.850734   0.000000
   12        7.851077   0.000000
   13        8.090193   0.000000
   14        8.093369   0.000000
   15        8.862335   0.000000
   16        8.862599   0.000000
   17       11.490076   0.000000
   18       11.641119   0.000000
   19       11.890952   0.000000
   20       11.891689   0.000000
   21       11.954660   0.000000
 
 -0.1428571E+00  0.0000000E+00  0.0000000E+00  0.1166181E-01
    1       -8.361734   1.000000
    2       -8.361734   1.000000
    3        1.117984   1.000000
    4        1.117984   1.000000
    5        2.901190   1.000000
    6        2.901191   1.000000
    7        3.139364   1.000000
    8        3.146450   1.000000
    9        4.466187  -0.000000
   10        4.466188  -0.000000
   11        7.295537   0.000000
   12        7.295563   0.000000
   13        7.555837   0.000000
   14        7.555886   0.000000
   15        7.697997   0.000000
   16        7.698813   0.000000
   17       11.766541   0.000000
   18       11.853555   0.000000
   19       11.876984   0.000000
   20       11.885588   0.000000
   21       12.445365   0.000000
 
  0.1428571E+00  0.1428571E+00  0.0000000E+00  0.1749271E-01
    1       -8.301428   1.000000
    2       -8.301428   1.000000
    3        1.052872   1.000000
    4        1.052872   1.000000
    5        2.537607   1.000000
    6        2.537607   1.000000
    7        2.682733   1.000000
    8        2.682734   1.000000
    9        5.237216   0.000000
   10        5.237217   0.000000
   11        6.366233   0.000000
   12        6.366237   0.000000
   13        8.062525   0.000000
   14        8.062581   0.000000
   15        8.265408   0.000000
   16        8.265516   0.000000
   17       10.614553   0.000000
   18       10.614826   0.000000
   19       12.304412   0.000000
   20       12.335294   0.000000
   21       14.177008   0.000000
 
  0.2857143E+00  0.1428571E+00  0.0000000E+00  0.3498542E-01
    1       -7.918611   1.000000
    2       -7.916205   1.000000
    3       -0.437907   1.000000
    4       -0.434534   1.000000
    5        1.999721   1.000000
    6        2.022243   1.000000
    7        2.193165   1.000000
    8        2.197076   1.000000
    9        5.598419   0.000000
   10        5.599054   0.000000
   11        6.617645   0.000000
   12        6.657791   0.000000
   13        8.596514   0.000000
   14        8.622650   0.000000
   15        8.835627   0.000000
   16        8.850127   0.000000
   17       10.739587   0.000000
   18       10.746802   0.000000
   19       12.923742   0.000000
   20       13.013834   0.000000
   21       13.427008   0.000000
 
  0.4285714E+00  0.1428571E+00  0.0000000E+00  0.3498542E-01
    1       -7.387136   1.000000
    2       -7.379539   1.000000
    3       -1.886356   1.000000
    4       -1.869347   1.000000
    5        1.434752   1.000000
    6        1.455403   1.000000
    7        1.956916   1.000000
    8        1.958773   1.000000
    9        5.400579   0.000000
   10        5.407027   0.000000
   11        7.408935   0.000000
   12        7.435835   0.000000
   13        8.787820   0.000000
   14        8.789853   0.000000
   15        9.215132   0.000000
   16        9.276791   0.000000
   17       11.937892   0.000000
   18       12.002293   0.000000
   19       13.157369   0.000000
   20       13.703451   0.000000
   21       14.187683   0.000000
 
 -0.4285714E+00  0.1428571E+00  0.0000000E+00  0.3498542E-01
    1       -7.176767   1.000000
    2       -7.165672   1.000000
    3       -2.345117   1.000000
    4       -2.320540   1.000000
    5        1.116945   1.000000
    6        1.130006   1.000000
    7        2.078160   1.000000
    8        2.083196   1.000000
    9        5.335576   0.000000
   10        5.338016   0.000000
   11        7.596133   0.000000
   12        7.621532   0.000000
   13        8.510965   0.000000
   14        8.511924   0.000000
   15       10.289288   0.000000
   16       10.323677   0.000000
   17       12.200381   0.000000
   18       12.359762   0.000000
   19       13.070326   0.000000
   20       13.161762   0.000000
   21       13.206621   0.000000
 
 -0.2857143E+00  0.1428571E+00  0.0000000E+00  0.3498542E-01
    1       -7.565071   1.000000
    2       -7.558223   1.000000
    3       -1.465685   1.000000
    4       -1.447115   1.000000
    5        1.212310   1.000000
    6        1.223230   1.000000
    7        2.482298   1.000000
    8        2.490912   1.000000
    9        5.431155   0.000000
   10        5.445920   0.000000
   11        7.863758   0.000000
   12        7.880932   0.000000
   13        8.234676   0.000000
   14        8.238233   0.000000
   15        8.973220   0.000000
   16        8.983239   0.000000
   17       11.354420   0.000000
   18       11.382259   0.000000
   19       12.507259   0.000000
   20       12.564516   0.000000
   21       13.966729   0.000000
 
 -0.1428571E+00  0.1428571E+00  0.0000000E+00  0.3498542E-01
    1       -8.080778   1.000000
    2       -8.078553   1.000000
    3        0.017078   1.000000
    4        0.020973   1.000000
    5        1.890776   1.000000
    6        1.908909   1.000000
    7        2.943156   1.000000
    8        2.954440   1.000000
    9        5.261352   0.000000
   10        5.277928   0.000000
   11        7.278406   0.000000
   12        7.422586   0.000000
   13        7.710535   0.000000
   14        7.748686   0.000000
   15        8.408760   0.000000
   16        8.496731   0.000000
   17       10.999469   0.000000
   18       11.032796   0.000000
   19       12.011901   0.000000
   20       12.121939   0.000000
   21       12.959851   0.000000
 
  0.2857143E+00  0.2857143E+00  0.0000000E+00  0.1749271E-01
    1       -7.649957   1.000000
    2       -7.649957   1.000000
    3       -0.882190   1.000000
    4       -0.882190   1.000000
    5        1.593772   1.000000
    6        1.593772   1.000000
    7        1.659239   1.000000
    8        1.659239   1.000000
    9        5.357763   0.000000
   10        5.357764   0.000000
   11        6.044224   0.000000
   12        6.044227   0.000000
   13        9.941753   0.000000
   14        9.941954   0.000000
   15       10.093675   0.000000
   16       10.093699   0.000000
   17       10.203592   0.000000
   18       10.203707   0.000000
   19       13.635658   0.000000
   20       13.654254   0.000000
   21       15.141386   0.000000
 
  0.4285714E+00  0.2857143E+00  0.0000000E+00  0.3498542E-01
    1       -7.202373   1.000000
    2       -7.194009   1.000000
    3       -1.821756   1.000000
    4       -1.803080   1.000000
    5        0.886198   1.000000
    6        0.904786   1.000000
    7        1.381189   1.000000
    8        1.381631   1.000000
    9        5.416714   0.000000
   10        5.441258   0.000000
   11        6.402489   0.000000
   12        6.424718   0.000000
   13        9.559103   0.000000
   14        9.625836   0.000000
   15       10.452806   0.000000
   16       10.471412   0.000000
   17       12.251219   0.000000
   18       12.253160   0.000000
   19       14.431277   0.000000
   20       14.762613   0.000000
   21       15.571084   0.000000
 
 -0.4285714E+00  0.2857143E+00  0.0000000E+00  0.3498542E-01
    1       -6.914592   1.000000
    2       -6.895740   1.000000
    3       -2.318485   1.000000
    4       -2.273265   1.000000
    5        0.154995   1.000000
    6        0.161005   1.000000
    7        1.502728   1.000000
    8        1.505748   1.000000
    9        5.547332   0.000000
   10        5.549977   0.000000
   11        7.849122   0.000000
   12        7.937823   0.000000
   13        9.542620   0.000000
   14        9.711775   0.000000
   15       10.023336   0.000000
   16       10.044221   0.000000
   17       11.552125   0.000000
   18       11.683395   0.000000
   19       13.225847   0.000000
   20       13.258774   0.000000
   21       15.437980   0.000000
 
 -0.2857143E+00  0.2857143E+00  0.0000000E+00  0.3498542E-01
    1       -7.119039   1.000000
    2       -7.102511   1.000000
    3       -2.019054   1.000000
    4       -1.972503   1.000000
    5        0.135169   1.000000
    6        0.136584   1.000000
    7        1.950825   1.000000
    8        1.956756   1.000000
    9        5.824704   0.000000
   10        5.849566   0.000000
   11        8.292158   0.000000
   12        8.416565   0.000000
   13        9.092450   0.000000
   14        9.218980   0.000000
   15        9.249746   0.000000
   16        9.303865   0.000000
   17       11.668304   0.000000
   18       11.691173   0.000000
   19       11.800020   0.000000
   20       11.942268   0.000000
   21       15.544707   0.000000
 
 -0.1428571E+00  0.2857143E+00  0.0000000E+00  0.3498542E-01
    1       -7.565071   1.000000
    2       -7.558223   1.000000
    3       -1.465685   1.000000
    4       -1.447115   1.000000
    5        1.212310   1.000000
    6        1.223230   1.000000
    7        2.482298   1.000000
    8        2.490912   1.000000
    9        5.431164   0.000000
   10        5.445911   0.000000
   11        7.864481   0.000000
   12        7.880285   0.000000
   13        8.234880   0.000000
   14        8.237995   0.000000
   15        8.972352   0.000000
   16        8.984077   0.000000
   17       11.353518   0.000000
   18       11.383424   0.000000
   19       12.530059   0.000000
   20       12.544947   0.000000
   21       13.966106   0.000000
 
  0.4285714E+00  0.4285714E+00  0.0000000E+00  0.1749271E-01
    1       -6.910058   1.000000
    2       -6.910058   1.000000
    3       -2.289339   1.000000
    4       -2.289339   1.000000
    5        1.032695   1.000000
    6        1.032695   1.000000
    7        1.053209   1.000000
    8        1.053209   1.000000
    9        4.885365   0.000000
   10        4.885365   0.000000
   11        5.478725   0.000000
   12        5.478725   0.000000
   13       11.832749   0.000000
   14       11.834437   0.000000
   15       11.987059   0.000000
   16       11.996187   0.000000
   17       12.119700   0.000000
   18       12.125731   0.000000
   19       14.531060   0.000000
   20       14.646467   0.000000
   21       15.736713   0.000000
 
 -0.4285714E+00  0.4285714E+00  0.0000000E+00  0.3498542E-01
    1       -6.770982   1.000000
    2       -6.756818   1.000000
    3       -2.478186   1.000000
    4       -2.448700   1.000000
    5        0.454810   1.000000
    6        0.468225   1.000000
    7        1.092957   1.000000
    8        1.093598   1.000000
    9        5.138426   0.000000
   10        5.161982   0.000000
   11        6.160699   0.000000
   12        6.180403   0.000000
   13       11.320628   0.000000
   14       11.322966   0.000000
   15       11.645079   0.000000
   16       11.689929   0.000000
   17       11.954040   0.000000
   18       12.194170   0.000000
   19       14.104595   0.000000
   20       14.127458   0.000000
   21       15.843957   0.000000
 
 -0.2857143E+00  0.4285714E+00  0.0000000E+00  0.3498542E-01
    1       -6.914592   1.000000
    2       -6.895740   1.000000
    3       -2.318485   1.000000
    4       -2.273265   1.000000
    5        0.154995   1.000000
    6        0.161005   1.000000
    7        1.502728   1.000000
    8        1.505748   1.000000
    9        5.547366   0.000000
   10        5.549945   0.000000
   11        7.849118   0.000000
   12        7.937836   0.000000
   13        9.542620   0.000000
   14        9.712343   0.000000
   15       10.027913   0.000000
   16       10.039422   0.000000
   17       11.557401   0.000000
   18       11.678435   0.000000
   19       13.227346   0.000000
   20       13.257131   0.000000
   21       15.207596   0.000000
 
 -0.1428571E+00  0.4285714E+00  0.0000000E+00  0.3498542E-01
    1       -7.176767   1.000000
    2       -7.165672   1.000000
    3       -2.345117   1.000000
    4       -2.320540   1.000000
    5        1.116945   1.000000
    6        1.130006   1.000000
    7        2.078160   1.000000
    8        2.083196   1.000000
    9        5.335676   0.000000
   10        5.337916   0.000000
   11        7.596142   0.000000
   12        7.621529   0.000000
   13        8.511401   0.000000
   14        8.511468   0.000000
   15       10.286541   0.000000
   16       10.325787   0.000000
   17       12.200962   0.000000
   18       12.342251   0.000000
   19       13.050842   0.000000
   20       13.172441   0.000000
   21       13.179410   0.000000
 
 -0.2857143E+00 -0.4285714E+00  0.0000000E+00  0.3498542E-01
    1       -7.202373   1.000000
    2       -7.194009   1.000000
    3       -1.821756   1.000000
    4       -1.803080   1.000000
    5        0.886198   1.000000
    6        0.904786   1.000000
    7        1.381189   1.000000
    8        1.381631   1.000000
    9        5.416711   0.000000
   10        5.441261   0.000000
   11        6.402504   0.000000
   12        6.424705   0.000000
   13        9.559011   0.000000
   14        9.625987   0.000000
   15       10.453113   0.000000
   16       10.471403   0.000000
   17       12.236167   0.000000
   18       12.268559   0.000000
   19       14.472058   0.000000
   20       15.176218   0.000000
   21       15.555979   0.000000
 
 -0.1428571E+00 -0.4285714E+00  0.0000000E+00  0.3498542E-01
    1       -7.387136   1.000000
    2       -7.379539   1.000000
    3       -1.886356   1.000000
    4       -1.869347   1.000000
    5        1.434752   1.000000
    6        1.455403   1.000000
    7        1.956916   1.000000
    8        1.958773   1.000000
    9        5.400589   0.000000
   10        5.407019   0.000000
   11        7.408987   0.000000
   12        7.435808   0.000000
   13        8.786898   0.000000
   14        8.791043   0.000000
   15        9.215372   0.000000
   16        9.276230   0.000000
   17       11.933212   0.000000
   18       11.988316   0.000000
   19       13.155009   0.000000
   20       13.158001   0.000000
   21       14.085491   0.000000
 
 -0.1428571E+00 -0.2857143E+00  0.0000000E+00  0.3498542E-01
    1       -7.918611   1.000000
    2       -7.916205   1.000000
    3       -0.437907   1.000000
    4       -0.434534   1.000000
    5        1.999721   1.000000
    6        2.022242   1.000000
    7        2.193165   1.000000
    8        2.197076   1.000000
    9        5.598318   0.000000
   10        5.599166   0.000000
   11        6.617645   0.000000
   12        6.657788   0.000000
   13        8.596666   0.000000
   14        8.622645   0.000000
   15        8.836392   0.000000
   16        8.849286   0.000000
   17       10.742141   0.000000
   18       10.744823   0.000000
   19       12.912190   0.000000
   20       13.032352   0.000000
   21       13.440702   0.000000
 
  0.4285714E+00  0.2857143E+00  0.1428571E+00  0.6997085E-01
    1       -7.494376   1.000000
    2       -7.486684   1.000000
    3       -1.340226   1.000000
    4       -1.319372   1.000000
    5        0.942218   1.000000
    6        0.950269   1.000000
    7        1.906824   1.000000
    8        1.930903   1.000000
    9        6.288890   0.000000
   10        6.357290   0.000000
   11        6.580920   0.000000
   12        6.683711   0.000000
   13        8.250608   0.000000
   14        8.358626   0.000000
   15        9.743084   0.000000
   16        9.877666   0.000000
   17       11.245568   0.000000
   18       11.290470   0.000000
   19       13.998180   0.000000
   20       14.475443   0.000000
   21       14.852928   0.000000
 
 -0.4285714E+00  0.2857143E+00  0.1428571E+00  0.6997085E-01
    1       -7.056481   1.000000
    2       -7.040097   1.000000
    3       -2.167051   1.000000
    4       -2.126872   1.000000
    5        0.409397   1.000000
    6        0.415560   1.000000
    7        1.510154   1.000000
    8        1.535749   1.000000
    9        6.338092   0.000000
   10        6.360598   0.000000
   11        7.315193   0.000000
   12        7.382192   0.000000
   13        8.595885   0.000000
   14        8.713693   0.000000
   15       10.252072   0.000000
   16       10.409920   0.000000
   17       11.465193   0.000000
   18       11.590769   0.000000
   19       13.393152   0.000000
   20       13.621918   0.000000
   21       14.564069   0.000000
 
 -0.2857143E+00  0.2857143E+00  0.1428571E+00  0.6997085E-01
    1       -7.056481   1.000000
    2       -7.040097   1.000000
    3       -2.167051   1.000000
    4       -2.126872   1.000000
    5        0.409397   1.000000
    6        0.415560   1.000000
    7        1.510154   1.000000
    8        1.535749   1.000000
    9        6.338258   0.000000
   10        6.360441   0.000000
   11        7.315189   0.000000
   12        7.382192   0.000000
   13        8.595896   0.000000
   14        8.713694   0.000000
   15       10.251861   0.000000
   16       10.410071   0.000000
   17       11.470590   0.000000
   18       11.585869   0.000000
   19       13.447727   0.000000
   20       13.748524   0.000000
   21       14.627902   0.000000
 
 -0.4285714E+00  0.4285714E+00  0.1428571E+00  0.6997085E-01
    1       -6.870696   1.000000
    2       -6.853882   1.000000
    3       -2.294955   1.000000
    4       -2.257729   1.000000
    5        0.510572   1.000000
    6        0.515266   1.000000
    7        0.848882   1.000000
    8        0.878639   1.000000
    9        6.041381   0.000000
   10        6.119677   0.000000
   11        6.432526   0.000000
   12        6.509970   0.000000
   13        9.360820   0.000000
   14        9.486458   0.000000
   15       11.263257   0.000000
   16       11.364124   0.000000
   17       12.236965   0.000000
   18       12.356021   0.000000
   19       14.216333   0.000000
   20       14.370906   0.000000
   21       15.900228   0.000000
 
 -0.2857143E+00  0.4285714E+00  0.1428571E+00  0.6997085E-01
    1       -6.798950   1.000000
    2       -6.775874   1.000000
    3       -2.358393   1.000000
    4       -2.303525   1.000000
    5        0.061677   1.000000
    6        0.068917   1.000000
    7        0.923333   1.000000
    8        0.950359   1.000000
    9        6.486301   0.000000
   10        6.490475   0.000000
   11        7.860077   0.000000
   12        7.963116   0.000000
   13        8.731262   0.000000
   14        8.884358   0.000000
   15        9.787580   0.000000
   16        9.866328   0.000000
   17       12.052580   0.000000
   18       12.204610   0.000000
   19       13.664265   0.000000
   20       13.705659   0.000000
   21       16.071215   0.000000
