       N       E                     dE             d eps       ncg     rms          ort
DAV:   1     0.577545451300E+01    0.57755E+01   -0.29931E+03  1232   0.178E+02
DAV:   2    -0.782530928694E+01   -0.13601E+02   -0.13601E+02  1232   0.257E+01
DAV:   3    -0.795305872557E+01   -0.12775E+00   -0.12774E+00  1232   0.337E+00
DAV:   4    -0.795402851280E+01   -0.96979E-03   -0.96978E-03  1232   0.267E-01
DAV:   5    -0.795403923945E+01   -0.10727E-04   -0.10727E-04  1232   0.290E-02
SDA:   6    -0.738224254738E+01    0.57180E+00   -0.20856E+00  1232   0.521E+00 0.000E+00
DMP:   7    -0.755061493666E+01   -0.16837E+00   -0.12072E+00  1232   0.185E+00 0.306E+00
DMP:   8    -0.763386754907E+01   -0.83253E-01   -0.31330E-01  1232   0.336E-01 0.117E+00
DMP:   9    -0.765160264875E+01   -0.17735E-01   -0.41171E-02  1232   0.627E-02 0.105E-01
DMP:  10    -0.765305121028E+01   -0.14486E-02   -0.14444E-02  1232   0.476E-02-0.301E-02
DMP:  11    -0.765390237501E+01   -0.85116E-03   -0.11996E-02  1232   0.275E-02 0.662E-03
DMP:  12    -0.765473357090E+01   -0.83120E-03   -0.58780E-03  1232   0.103E-02 0.116E-02
DMP:  13    -0.765512488276E+01   -0.39131E-03   -0.21109E-03  1232   0.342E-03 0.487E-03
DMP:  14    -0.765526215494E+01   -0.13727E-03   -0.77181E-04  1232   0.133E-03 0.158E-03
DMP:  15    -0.765531309824E+01   -0.50943E-04   -0.29354E-04  1232   0.504E-04 0.602E-04
   1 F= -.76553131E+01 E0= -.76552696E+01  d E =-.130599E-03  mag=     0.0000     0.0000    -0.0000
