       N       E                     dE             d eps       ncg     rms          ort
DAV:   1     0.357922653134E+02    0.35792E+02   -0.26972E+03   630   0.541E+02
DAV:   2    -0.114525571729E+01   -0.36938E+02   -0.33176E+02   630   0.112E+02
DAV:   3    -0.689727157818E+01   -0.57520E+01   -0.53319E+01   630   0.478E+01
DAV:   4    -0.777396714674E+01   -0.87670E+00   -0.83345E+00   630   0.194E+01
DAV:   5    -0.792626679908E+01   -0.15230E+00   -0.14622E+00   630   0.751E+00
SDA:   6    -0.739135623636E+01    0.53491E+00   -0.28374E+00   630   0.709E+00 0.000E+00
DMP:   7    -0.758942105936E+01   -0.19806E+00   -0.94551E-01   630   0.132E+00 0.275E+00
DMP:   8    -0.763971379702E+01   -0.50293E-01   -0.19600E-01   630   0.438E-01 0.136E-01
DMP:   9    -0.765162167486E+01   -0.11908E-01   -0.14243E-01   630   0.319E-01 0.958E-02
DMP:  10    -0.766135832772E+01   -0.97367E-02   -0.55539E-02   630   0.899E-02 0.128E-01
DMP:  11    -0.766455396505E+01   -0.31956E-02   -0.13120E-02   630   0.251E-02 0.200E-02
DMP:  12    -0.766530330752E+01   -0.74934E-03   -0.66918E-03   630   0.150E-02 0.442E-03
DMP:  13    -0.766574883296E+01   -0.44553E-03   -0.28412E-03   630   0.501E-03 0.547E-03
DMP:  14    -0.766591488351E+01   -0.16605E-03   -0.70168E-04   630   0.131E-03 0.116E-03
DMP:  15    -0.766595281608E+01   -0.37933E-04   -0.32299E-04   630   0.760E-04 0.125E-04
DMP:  16    -0.766597501103E+01   -0.22195E-04   -0.18080E-04   630   0.338E-04 0.298E-04
DMP:  17    -0.766598694619E+01   -0.11935E-04   -0.59823E-05   630   0.942E-05 0.145E-04
DMP:  18    -0.766599058599E+01   -0.36398E-05   -0.20410E-05   630   0.388E-05 0.321E-05
   1 F= -.76659906E+01 E0= -.76659632E+01  d E =-.822097E-04  mag=     0.0000    -0.0000     0.0000
