       N       E                     dE             d eps       ncg     rms          rms(c)
DAV:   1     0.190083212205E+02    0.19008E+02   -0.25122E+03  1260   0.483E+02
DAV:   2    -0.665290126371E+01   -0.25661E+02   -0.24682E+02  1554   0.855E+01
DAV:   3    -0.795342563680E+01   -0.13005E+01   -0.12974E+01  1596   0.203E+01
DAV:   4    -0.796248196067E+01   -0.90563E-02   -0.90558E-02  1442   0.205E+00
DAV:   5    -0.796253246120E+01   -0.50501E-04   -0.50500E-04  1659   0.158E-01    0.488E+00
RMM:   6    -0.784344635683E+01    0.11909E+00   -0.22367E-02  1261   0.646E-01    0.317E+00
RMM:   7    -0.766028797888E+01    0.18316E+00   -0.16144E-01  1268   0.171E+00    0.145E+00
RMM:   8    -0.765712683019E+01    0.31611E-02   -0.75900E-03  1424   0.391E-01    0.113E+00
RMM:   9    -0.766210037057E+01   -0.49735E-02   -0.18323E-02  1293   0.611E-01    0.219E-01
RMM:  10    -0.766409316810E+01   -0.19928E-02   -0.23783E-03  1339   0.254E-01    0.148E-01
RMM:  11    -0.766548145219E+01   -0.13883E-02   -0.15257E-03  1279   0.216E-01    0.136E-01
RMM:  12    -0.766552186796E+01   -0.40416E-04   -0.31792E-04  1327   0.102E-01    0.905E-02
RMM:  13    -0.766552700283E+01   -0.51349E-05   -0.50384E-05  1410   0.392E-02
   1 F= -.76655270E+01 E0= -.76654448E+01  d E =-.164487E-03  mag=     0.0000     0.0000    -0.0000
