 vasp.5.4.4.18Apr17-6-g9f103f2a35 (build Nov 08 2017 12:56:59) complex          
  
 executed on             LinuxIFC date 2021.06.01  12:04:03
 running on   56 total cores
 distrk:  each k-point on   14 cores,    4 groups
 distr:  one band on NCORES_PER_BAND=   2 cores,    7 groups


--------------------------------------------------------------------------------------------------------


 INCAR:
 POTCAR:    PAW_PBE In 08Apr2002                  
 POTCAR:    PAW_PBE As 22Sep2009                  

 ----------------------------------------------------------------------------- 
|                                                                             |
|           W    W    AA    RRRRR   N    N  II  N    N   GGGG   !!!           |
|           W    W   A  A   R    R  NN   N  II  NN   N  G    G  !!!           |
|           W    W  A    A  R    R  N N  N  II  N N  N  G       !!!           |
|           W WW W  AAAAAA  RRRRR   N  N N  II  N  N N  G  GGG   !            |
|           WW  WW  A    A  R   R   N   NN  II  N   NN  G    G                |
|           W    W  A    A  R    R  N    N  II  N    N   GGGG   !!!           |
|                                                                             |
|      For optimal performance we recommend to set                            |
|        NCORE= 4 - approx SQRT( number of cores)                             |
|      NCORE specifies how many cores store one orbital (NPAR=cpu/NCORE).     |
|      This setting can  greatly improve the performance of VASP for DFT.     |
|      The default,   NCORE=1            might be grossly inefficient         |
|      on modern multi-core architectures or massively parallel machines.     |
|      Do your own testing !!!!                                               |
|      Unfortunately you need to use the default for GW and RPA calculations. |
|      (for HF NCORE is supported but not extensively tested yet)             |
|                                                                             |
 ----------------------------------------------------------------------------- 


 ----------------------------------------------------------------------------- 
|                                                                             |
|           W    W    AA    RRRRR   N    N  II  N    N   GGGG   !!!           |
|           W    W   A  A   R    R  NN   N  II  NN   N  G    G  !!!           |
|           W    W  A    A  R    R  N N  N  II  N N  N  G       !!!           |
|           W WW W  AAAAAA  RRRRR   N  N N  II  N  N N  G  GGG   !            |
|           WW  WW  A    A  R   R   N   NN  II  N   NN  G    G                |
|           W    W  A    A  R    R  N    N  II  N    N   GGGG   !!!           |
|                                                                             |
|      You have enabled k-point parallelism (KPAR>1).                         |
|      This developmental code was originally  written by Paul Kent at ORNL,  |
|      and carefully double checked in Vienna.                                |
|      GW as well as linear response parallelism added by Martijn Marsman     |
|      and Georg Kresse.                                                      |
|      Carefully verify results versus KPAR=1.                                |
|      Report problems to Paul Kent and Vienna.                               |
|                                                                             |
 ----------------------------------------------------------------------------- 

 POTCAR:    PAW_PBE In 08Apr2002                  
   VRHFIN =In: s2p1                                                             
   LEXCH  = PE                                                                  
   EATOM  =    53.7908 eV,    3.9535 Ry                                         
                                                                                
   TITEL  = PAW_PBE In 08Apr2002                                                
   LULTRA =        F    use ultrasoft PP ?                                      
   IUNSCR =        1    unscreen: 0-lin 1-nonlin 2-no                           
   RPACOR =    2.400    partial core radius                                     
   POMASS =  114.820; ZVAL   =    3.000    mass and valenz                      
   RCORE  =    3.100    outmost cutoff radius                                   
   RWIGS  =    3.170; RWIGS  =    1.677    wigner-seitz radius (au A)           
   ENMAX  =   95.934; ENMIN  =   71.951 eV                                      
   ICORE  =        3    local potential                                         
   LCOR   =        T    correct aug charges                                     
   LPAW   =        T    paw PP                                                  
   EAUG   =  237.125                                                            
   DEXC   =    0.000                                                            
   RMAX   =    3.168    core radius for proj-oper                               
   RAUG   =    1.300    factor for augmentation sphere                          
   RDEP   =    3.187    radius for radial grids                                 
   RDEPT  =    2.711    core radius for aug-charge                              
                                                                                
   Atomic configuration                                                         
   13 entries                                                                   
     n  l   j            E        occ.                                          
     1  0  0.50    -27747.9169   2.0000                                         
     2  0  0.50     -4154.4438   2.0000                                         
     2  1  1.50     -3728.4305   6.0000                                         
     3  0  0.50      -788.3680   2.0000                                         
     3  1  1.50      -648.9215   6.0000                                         
     3  2  2.50      -432.5893  10.0000                                         
     4  0  0.50      -119.6363   2.0000                                         
     4  1  1.50       -78.1086   6.0000                                         
     4  2  2.50       -18.6227  10.0000                                         
     5  0  0.50        -8.2107   2.0000                                         
     5  1  0.50        -2.5185   1.0000                                         
     5  2  2.50        -1.3606   0.0000                                         
     4  3  2.50        -2.7212   0.0000                                         
   Description                                                                  
     l       E           TYP  RCUT    TYP  RCUT                                 
     0     -8.2107306     23  3.100                                             
     0     -6.1485975     23  3.100                                             
     1     -2.5184867     23  3.100                                             
     1      3.2427302     23  3.100                                             
     2     -1.3605826     23  3.100                                             
     3     -1.3605826     23  3.100                                             
  local pseudopotential read in
  partial core-charges read in
  partial kinetic energy density read in
  atomic valenz-charges read in
  non local Contribution for L=           0  read in
    real space projection operators read in
  non local Contribution for L=           0  read in
    real space projection operators read in
  non local Contribution for L=           1  read in
    real space projection operators read in
  non local Contribution for L=           1  read in
    real space projection operators read in
  non local Contribution for L=           2  read in
    real space projection operators read in
    PAW grid and wavefunctions read in
 
   number of l-projection  operators is LMAX  =           5
   number of lm-projection operators is LMMAX =          13
 
 POTCAR:    PAW_PBE As 22Sep2009                  
   VRHFIN =As: s2p3                                                             
   LEXCH  = PE                                                                  
   EATOM  =   170.1867 eV,   12.5084 Ry                                         
                                                                                
   TITEL  = PAW_PBE As 22Sep2009                                                
   LULTRA =        F    use ultrasoft PP ?                                      
   IUNSCR =        1    unscreen: 0-lin 1-nonlin 2-no                           
   RPACOR =    1.900    partial core radius                                     
   POMASS =   74.922; ZVAL   =    5.000    mass and valenz                      
   RCORE  =    2.100    outmost cutoff radius                                   
   RWIGS  =    2.300; RWIGS  =    1.217    wigner-seitz radius (au A)           
   ENMAX  =  208.702; ENMIN  =  156.526 eV                                      
   ICORE  =        3    local potential                                         
   LCOR   =        T    correct aug charges                                     
   LPAW   =        T    paw PP                                                  
   EAUG   =  462.758                                                            
   DEXC   =    0.000                                                            
   RMAX   =    2.144    core radius for proj-oper                               
   RAUG   =    1.300    factor for augmentation sphere                          
   RDEP   =    2.140    radius for radial grids                                 
   RDEPT  =    1.956    core radius for aug-charge                              
                                                                                
   Atomic configuration                                                         
   10 entries                                                                   
     n  l   j            E        occ.                                          
     1  0  0.50    -11718.0418   2.0000                                         
     2  0  0.50     -1486.5454   2.0000                                         
     2  1  1.50     -1303.3889   6.0000                                         
     3  0  0.50      -190.2849   2.0000                                         
     3  1  1.50      -133.6555   6.0000                                         
     3  2  2.50       -40.6443  10.0000                                         
     4  0  0.50       -14.4936   2.0000                                         
     4  1  0.50        -5.1947   3.0000                                         
     4  2  1.50        -5.4423   0.0000                                         
     4  3  2.50        -5.4423   0.0000                                         
   Description                                                                  
     l       E           TYP  RCUT    TYP  RCUT                                 
     0    -14.4935570     23  2.100                                             
     0    -11.9212055     23  2.100                                             
     1     -5.1947127     23  2.100                                             
     1     27.2116520     23  2.100                                             
     2     -5.4423304     23  2.100                                             
     3     -1.3605826      7  2.100                                             
  local pseudopotential read in
  partial core-charges read in
  partial kinetic energy density read in
  atomic valenz-charges read in
  non local Contribution for L=           0  read in
    real space projection operators read in
  non local Contribution for L=           0  read in
    real space projection operators read in
  non local Contribution for L=           1  read in
    real space projection operators read in
  non local Contribution for L=           1  read in
    real space projection operators read in
  non local Contribution for L=           2  read in
    real space projection operators read in
    PAW grid and wavefunctions read in
 
   number of l-projection  operators is LMAX  =           5
   number of lm-projection operators is LMMAX =          13
 
  PAW_PBE In 08Apr2002                  :
 energy of atom  1       EATOM=  -53.7908
 kinetic energy error for atom=    0.0000 (will be added to EATOM!!)
  PAW_PBE As 22Sep2009                  :
 energy of atom  2       EATOM= -170.1867
 kinetic energy error for atom=    0.0013 (will be added to EATOM!!)
 
 
 POSCAR: In1 As1                                 
  positions in direct lattice
  No initial velocities read in
 exchange correlation table for  LEXCH =        8
   RHO(1)=    0.500       N(1)  =     2000
   RHO(2)=  100.500       N(2)  =     4000
 


--------------------------------------------------------------------------------------------------------


 ion  position               nearest neighbor table
   1  0.000  0.000  0.000-   2 2.62   2 2.62   2 2.62   2 2.62
   2  0.750  0.750  0.750-   1 2.62   1 2.62   1 2.62   1 2.62
 
  LATTYP: Found a face centered cubic cell.
 ALAT       =     6.0584000000
  
  Lattice vectors:
  
 A1 = (   0.0000000000,   3.0292000000,   3.0292000000)
 A2 = (   3.0292000000,   0.0000000000,   3.0292000000)
 A3 = (   3.0292000000,   3.0292000000,   0.0000000000)


Analysis of symmetry for initial positions (statically):
=====================================================================
 Subroutine PRICEL returns:
 Original cell was already a primitive cell.
 

 Routine SETGRP: Setting up the symmetry group for a 
 face centered cubic supercell.


 Subroutine GETGRP returns: Found 24 space group operations
 (whereof 24 operations were pure point group operations)
 out of a pool of 48 trial point group operations.


The static configuration has the point symmetry T_d .


Analysis of symmetry for dynamics (positions and initial velocities):
=====================================================================
 Subroutine PRICEL returns:
 Original cell was already a primitive cell.
 

 Routine SETGRP: Setting up the symmetry group for a 
 face centered cubic supercell.


 Subroutine GETGRP returns: Found 24 space group operations
 (whereof 24 operations were pure point group operations)
 out of a pool of 48 trial point group operations.


The dynamic configuration has the point symmetry T_d .


Analysis of structural, dynamic, and magnetic symmetry:
=====================================================================
 Subroutine PRICEL returns:
 Original cell was already a primitive cell.
 

 Routine SETGRP: Setting up the symmetry group for a 
 face centered cubic supercell.


 Subroutine GETGRP returns: Found 24 space group operations
 (whereof 24 operations were pure point group operations)
 out of a pool of 48 trial point group operations.


The (compounded) configuration has the point symmetry T_d .


 Subroutine INISYM returns: Found 24 space group operations
 (whereof 24 operations are pure point group operations),
 and found     1 'primitive' translations

 
 
 KPOINTS: Automatic kpoint scheme                 

Automatic generation of k-mesh.
Space group operators:
 irot       det(A)        alpha          n_x          n_y          n_z        tau_x        tau_y        tau_z
    1     1.000000     0.000000     1.000000     0.000000     0.000000     0.000000     0.000000     0.000000
    2     1.000000   120.000000    -0.577350    -0.577350    -0.577350     0.000000     0.000000     0.000000
    3     1.000000   120.000000     0.577350     0.577350     0.577350     0.000000     0.000000     0.000000
    4    -1.000000    90.000000     0.000000     0.000000    -1.000000     0.000000     0.000000     0.000000
    5    -1.000000   180.000000     0.000000     0.707107     0.707107     0.000000     0.000000     0.000000
    6    -1.000000    90.000000     0.000000     1.000000     0.000000     0.000000     0.000000     0.000000
    7     1.000000   180.000000     0.000000     0.000000     1.000000     0.000000     0.000000     0.000000
    8     1.000000   120.000000    -0.577350     0.577350     0.577350     0.000000     0.000000     0.000000
    9     1.000000   120.000000    -0.577350     0.577350    -0.577350     0.000000     0.000000     0.000000
   10    -1.000000    90.000000     0.000000     0.000000     1.000000     0.000000     0.000000     0.000000
   11    -1.000000    90.000000    -1.000000     0.000000     0.000000     0.000000     0.000000     0.000000
   12    -1.000000   180.000000     0.707107     0.000000     0.707107     0.000000     0.000000     0.000000
   13     1.000000   120.000000     0.577350    -0.577350     0.577350     0.000000     0.000000     0.000000
   14     1.000000   120.000000    -0.577350    -0.577350     0.577350     0.000000     0.000000     0.000000
   15     1.000000   180.000000     1.000000     0.000000     0.000000     0.000000     0.000000     0.000000
   16    -1.000000    90.000000     0.000000    -1.000000     0.000000     0.000000     0.000000     0.000000
   17    -1.000000   180.000000     0.707107     0.707107     0.000000     0.000000     0.000000     0.000000
   18    -1.000000    90.000000     1.000000     0.000000     0.000000     0.000000     0.000000     0.000000
   19     1.000000   120.000000     0.577350    -0.577350    -0.577350     0.000000     0.000000     0.000000
   20     1.000000   180.000000     0.000000     1.000000     0.000000     0.000000     0.000000     0.000000
   21     1.000000   120.000000     0.577350     0.577350    -0.577350     0.000000     0.000000     0.000000
   22    -1.000000   180.000000     0.000000    -0.707107     0.707107     0.000000     0.000000     0.000000
   23    -1.000000   180.000000     0.707107    -0.707107     0.000000     0.000000     0.000000     0.000000
   24    -1.000000   180.000000     0.707107     0.000000    -0.707107     0.000000     0.000000     0.000000
 
 Subroutine IBZKPT returns following result:
 ===========================================
 
 Found     30 irreducible k-points:
 
 Following reciprocal coordinates:
            Coordinates               Weight
  0.000000  0.000000  0.000000      1.000000
  0.142857  0.000000  0.000000      4.000000
  0.285714  0.000000  0.000000      4.000000
  0.428571  0.000000  0.000000      4.000000
 -0.428571  0.000000  0.000000      4.000000
 -0.285714  0.000000  0.000000      4.000000
 -0.142857  0.000000  0.000000      4.000000
  0.142857  0.142857  0.000000      6.000000
  0.285714  0.142857  0.000000     12.000000
  0.428571  0.142857  0.000000     12.000000
 -0.428571  0.142857  0.000000     12.000000
 -0.285714  0.142857  0.000000     12.000000
 -0.142857  0.142857  0.000000     12.000000
  0.285714  0.285714  0.000000      6.000000
  0.428571  0.285714  0.000000     12.000000
 -0.428571  0.285714  0.000000     12.000000
 -0.285714  0.285714  0.000000     12.000000
 -0.142857  0.285714  0.000000     12.000000
  0.428571  0.428571  0.000000      6.000000
 -0.428571  0.428571  0.000000     12.000000
 -0.285714  0.428571  0.000000     12.000000
 -0.142857  0.428571  0.000000     12.000000
 -0.285714 -0.428571  0.000000     12.000000
 -0.142857 -0.428571  0.000000     12.000000
 -0.142857 -0.285714  0.000000     12.000000
  0.428571  0.285714  0.142857     24.000000
 -0.428571  0.285714  0.142857     24.000000
 -0.285714  0.285714  0.142857     24.000000
 -0.428571  0.428571  0.142857     24.000000
 -0.285714  0.428571  0.142857     24.000000
 
 Following cartesian coordinates:
            Coordinates               Weight
  0.000000  0.000000  0.000000      1.000000
 -0.023580  0.023580  0.023580      4.000000
 -0.047160  0.047160  0.047160      4.000000
 -0.070740  0.070740  0.070740      4.000000
  0.070740 -0.070740 -0.070740      4.000000
  0.047160 -0.047160 -0.047160      4.000000
  0.023580 -0.023580 -0.023580      4.000000
  0.000000  0.000000  0.047160      6.000000
 -0.023580  0.023580  0.070740     12.000000
 -0.047160  0.047160  0.094320     12.000000
  0.094320 -0.094320 -0.047160     12.000000
  0.070740 -0.070740 -0.023580     12.000000
  0.047160 -0.047160  0.000000     12.000000
  0.000000  0.000000  0.094320      6.000000
 -0.023580  0.023580  0.117900     12.000000
  0.117900 -0.117900 -0.023580     12.000000
  0.094320 -0.094320  0.000000     12.000000
  0.070740 -0.070740  0.023580     12.000000
  0.000000  0.000000  0.141480      6.000000
  0.141480 -0.141480  0.000000     12.000000
  0.117900 -0.117900  0.023580     12.000000
  0.094320 -0.094320  0.047160     12.000000
 -0.023580  0.023580 -0.117900     12.000000
 -0.047160  0.047160 -0.094320     12.000000
 -0.023580  0.023580 -0.070740     12.000000
 -0.000000  0.047160  0.094320     24.000000
  0.141480 -0.094320 -0.047160     24.000000
  0.117900 -0.070740 -0.023580     24.000000
  0.165060 -0.117900 -0.023580     24.000000
  0.141480 -0.094320 -0.000000     24.000000
 

 ----------------------------------------------------------------------------- 
|                                                                             |
|           W    W    AA    RRRRR   N    N  II  N    N   GGGG   !!!           |
|           W    W   A  A   R    R  NN   N  II  NN   N  G    G  !!!           |
|           W    W  A    A  R    R  N N  N  II  N N  N  G       !!!           |
|           W WW W  AAAAAA  RRRRR   N  N N  II  N  N N  G  GGG   !            |
|           WW  WW  A    A  R   R   N   NN  II  N   NN  G    G                |
|           W    W  A    A  R    R  N    N  II  N    N   GGGG   !!!           |
|                                                                             |
|      The number of bands has been changed from the values supplied          |
|      in the INCAR file. This is a result of running the parallel version.   |
|      The orbitals not found in the WAVECAR file will be initialized with    |
|      random numbers, which is usually adequate. For correlated              |
|      calculations, however, you should redo the groundstate calculation.    |
|      I found NBANDS    =       15  now  NBANDS  =      21                   |
|                                                                             |
 ----------------------------------------------------------------------------- 



--------------------------------------------------------------------------------------------------------




 Dimension of arrays:
   k-points           NKPTS =     30   k-points in BZ     NKDIM =     30   number of bands    NBANDS=     21
   number of dos      NEDOS =    301   number of ions     NIONS =      2
   non local maximal  LDIM  =      5   non local SUM 2l+1 LMDIM =     13
   total plane-waves  NPLWV =  13824
   max r-space proj   IRMAX =      1   max aug-charges    IRDMAX=  28249
   dimension x,y,z NGX =    24 NGY =   24 NGZ =   24
   dimension x,y,z NGXF=    48 NGYF=   48 NGZF=   48
   support grid    NGXF=    48 NGYF=   48 NGZF=   48
   ions per type =               1   1
   NGX,Y,Z   is equivalent  to a cutoff of   9.31,  9.31,  9.31 a.u.
   NGXF,Y,Z  is equivalent  to a cutoff of  18.63, 18.63, 18.63 a.u.

 SYSTEM =  unknown system                          
 POSCAR =  In1 As1                                 

 Startparameter for this run:
   NWRITE =      2    write-flag & timer
   PREC   = n         normal or accurate (medium, high low for compatibility)
   ISTART =      0    job   : 0-new  1-cont  2-samecut
   ICHARG =      2    charge: 1-file 2-atom 10-const
   ISPIN  =      1    spin polarized calculation?
   LNONCOLLINEAR =      T non collinear calculations
   LSORBIT =      T    spin-orbit coupling
   INIWAV =      1    electr: 0-lowe 1-rand  2-diag
   LASPH  =      T    aspherical Exc in radial PAW
   METAGGA=      F    non-selfconsistent MetaGGA calc.

 Electronic Relaxation 1
   ENCUT  =  400.0 eV  29.40 Ry    5.42 a.u.   6.99  6.99  6.99*2*pi/ulx,y,z
   ENINI  =  400.0     initial cutoff
   ENAUG  =  462.8 eV  augmentation charge cutoff
   NELM   =    500;   NELMIN=  2; NELMDL= -5     # of ELM steps 
   EDIFF  = 0.1E-04   stopping-criterion for ELM
   LREAL  =      F    real-space projection
   NLSPLINE    = F    spline interpolate recip. space projectors
   LCOMPAT=      F    compatible to vasp.4.4
   GGA_COMPAT  = T    GGA compatible to vasp.4.4-vasp.4.6
   LMAXPAW     = -100 max onsite density
   LMAXMIX     =    2 max onsite mixed and CHGCAR
   VOSKOWN=      0    Vosko Wilk Nusair interpolation
   ROPT   =    0.00000   0.00000
 Ionic relaxation
   EDIFFG = 0.1E-03   stopping-criterion for IOM
   NSW    =      0    number of steps for IOM
   NBLOCK =      1;   KBLOCK =      1    inner block; outer block 
   IBRION =     -1    ionic relax: 0-MD 1-quasi-New 2-CG
   NFREE  =      0    steps in history (QN), initial steepest desc. (CG)
   ISIF   =      2    stress and relaxation
   IWAVPR =     10    prediction:  0-non 1-charg 2-wave 3-comb
   ISYM   =      2    0-nonsym 1-usesym 2-fastsym
   LCORR  =      T    Harris-Foulkes like correction to forces

   POTIM  = 0.5000    time-step for ionic-motion
   TEIN   =    0.0    initial temperature
   TEBEG  =    0.0;   TEEND  =   0.0 temperature during run
   SMASS  =  -3.00    Nose mass-parameter (am)
   estimated Nose-frequenzy (Omega)   =  0.10E-29 period in steps =****** mass=  -0.419E-27a.u.
   SCALEE = 1.0000    scale energy and forces
   NPACO  =    256;   APACO  = 16.0  distance and # of slots for P.C.
   PSTRESS=    0.0 pullay stress

  Mass of Ions in am
   POMASS = 114.82 74.92
  Ionic Valenz
   ZVAL   =   3.00  5.00
  Atomic Wigner-Seitz radii
   RWIGS  =  -1.00 -1.00
  virtual crystal weights 
   VCA    =   1.00  1.00
   NELECT =       8.0000    total number of electrons
   NUPDOWN=      -1.0000    fix difference up-down

 DOS related values:
   EMIN   =  10.00;   EMAX   =-10.00  energy-range for DOS
   EFERMI =   0.00
   ISMEAR =     0;   SIGMA  =   0.05  broadening in eV -4-tet -1-fermi 0-gaus

 Electronic relaxation 2 (details)
   IALGO  =     68    algorithm
   LDIAG  =      T    sub-space diagonalisation (order eigenvalues)
   LSUBROT=      F    optimize rotation matrix (better conditioning)
   TURBO    =      0    0=normal 1=particle mesh
   IRESTART =      0    0=no restart 2=restart with 2 vectors
   NREBOOT  =      0    no. of reboots
   NMIN     =      0    reboot dimension
   EREF     =   0.00    reference energy to select bands
   IMIX   =      4    mixing-type and parameters
     AMIX     =   0.40;   BMIX     =  3.00
     AMIX_MAG =   1.60;   BMIX_MAG =  3.00
     AMIN     =   0.01
     WC   =   100.;   INIMIX=   1;  MIXPRE=   1;  MAXMIX= -45

 Intra band minimization:
   WEIMIN = 0.0000     energy-eigenvalue tresh-hold
   EBREAK =  0.12E-06  absolut break condition
   DEPER  =   0.30     relativ break condition  

   TIME   =   0.40     timestep for ELM

  volume/ion in A,a.u.               =      27.80       187.58
  Fermi-wavevector in a.u.,A,eV,Ry     =   0.857894  1.621184 10.013641  0.735982
  Thomas-Fermi vector in A             =   1.975016
 
 Write flags
   LWAVE        =      T    write WAVECAR
   LDOWNSAMPLE  =      F    k-point downsampling of WAVECAR
   LCHARG       =      T    write CHGCAR
   LVTOT        =      F    write LOCPOT, total local potential
   LVHAR        =      F    write LOCPOT, Hartree potential only
   LELF         =      F    write electronic localiz. function (ELF)
   LORBIT       =      0    0 simple, 1 ext, 2 COOP (PROOUT), +10 PAW based schemes


 Dipole corrections
   LMONO  =      F    monopole corrections only (constant potential shift)
   LDIPOL =      F    correct potential (dipole corrections)
   IDIPOL =      0    1-x, 2-y, 3-z, 4-all directions 
   EPSILON=  1.0000000 bulk dielectric constant

 Exchange correlation treatment:
   GGA     =    --    GGA type
   LEXCH   =     8    internal setting for exchange type
   VOSKOWN=      0    Vosko Wilk Nusair interpolation
   LHFCALC =     F    Hartree Fock is set to
   LHFONE  =     F    Hartree Fock one center treatment
   AEXX    =    0.0000 exact exchange contribution

 Linear response parameters
   LEPSILON=     F    determine dielectric tensor
   LRPA    =     F    only Hartree local field effects (RPA)
   LNABLA  =     F    use nabla operator in PAW spheres
   LVEL    =     F    velocity operator in full k-point grid
   LINTERFAST=   F  fast interpolation
   KINTER  =     0    interpolate to denser k-point grid
   CSHIFT  =0.1000    complex shift for real part using Kramers Kronig
   OMEGAMAX=  -1.0    maximum frequency
   DEG_THRESHOLD= 0.2000000E-02 threshold for treating states as degnerate
   RTIME   =   -0.100 relaxation time in fs
  (WPLASMAI=    0.000 imaginary part of plasma frequency in eV, 0.658/RTIME)
   DFIELD  = 0.0000000 0.0000000 0.0000000 field for delta impulse in time
 
 Orbital magnetization related:
   ORBITALMAG=     F  switch on orbital magnetization
   LCHIMAG   =     F  perturbation theory with respect to B field
   DQ        =  0.001000  dq finite difference perturbation B field
   LLRAUG    =     F  two centre corrections for induced B field



--------------------------------------------------------------------------------------------------------


 Static calculation
 charge density and potential will be updated during run
 non collinear spin polarized calculation
 RMM-DIIS sequential band-by-band and
  variant of blocked Davidson during initial phase
 perform sub-space diagonalisation
    before iterative eigenvector-optimisation
 modified Broyden-mixing scheme, WC =      100.0
 initial mixing is a Kerker type mixing with AMIX =  0.4000 and BMIX =      3.0000
 Hartree-type preconditioning will be used
 using additional bands           17
 reciprocal scheme for non local part
 use partial core corrections
 calculate Harris-corrections to forces 
   (improved forces if not selfconsistent)
 use gradient corrections 
 use of overlap-Matrix (Vanderbilt PP)
 Gauss-broadening in eV      SIGMA  =   0.05


--------------------------------------------------------------------------------------------------------


  energy-cutoff  :      400.00
  volume of cell :       55.59
      direct lattice vectors                 reciprocal lattice vectors
     0.000000000  3.029200000  3.029200000    -0.165060082  0.165060082  0.165060082
     3.029200000  0.000000000  3.029200000     0.165060082 -0.165060082  0.165060082
     3.029200000  3.029200000  0.000000000     0.165060082  0.165060082 -0.165060082

  length of vectors
     4.283935723  4.283935723  4.283935723     0.285892448  0.285892448  0.285892448


 
 k-points in units of 2pi/SCALE and weight: Automatic kpoint scheme                 
   0.00000000  0.00000000  0.00000000       0.003
  -0.02358001  0.02358001  0.02358001       0.012
  -0.04716002  0.04716002  0.04716002       0.012
  -0.07074004  0.07074004  0.07074004       0.012
   0.07074004 -0.07074004 -0.07074004       0.012
   0.04716002 -0.04716002 -0.04716002       0.012
   0.02358001 -0.02358001 -0.02358001       0.012
   0.00000000  0.00000000  0.04716002       0.017
  -0.02358001  0.02358001  0.07074004       0.035
  -0.04716002  0.04716002  0.09432005       0.035
   0.09432005 -0.09432005 -0.04716002       0.035
   0.07074004 -0.07074004 -0.02358001       0.035
   0.04716002 -0.04716002  0.00000000       0.035
   0.00000000  0.00000000  0.09432005       0.017
  -0.02358001  0.02358001  0.11790006       0.035
   0.11790006 -0.11790006 -0.02358001       0.035
   0.09432005 -0.09432005  0.00000000       0.035
   0.07074004 -0.07074004  0.02358001       0.035
   0.00000000  0.00000000  0.14148007       0.017
   0.14148007 -0.14148007  0.00000000       0.035
   0.11790006 -0.11790006  0.02358001       0.035
   0.09432005 -0.09432005  0.04716002       0.035
  -0.02358001  0.02358001 -0.11790006       0.035
  -0.04716002  0.04716002 -0.09432005       0.035
  -0.02358001  0.02358001 -0.07074004       0.035
  -0.00000000  0.04716002  0.09432005       0.070
   0.14148007 -0.09432005 -0.04716002       0.070
   0.11790006 -0.07074004 -0.02358001       0.070
   0.16506008 -0.11790006 -0.02358001       0.070
   0.14148007 -0.09432005 -0.00000000       0.070
 
 k-points in reciprocal lattice and weights: Automatic kpoint scheme                 
   0.00000000  0.00000000  0.00000000       0.003
   0.14285714  0.00000000  0.00000000       0.012
   0.28571429  0.00000000  0.00000000       0.012
   0.42857143  0.00000000  0.00000000       0.012
  -0.42857143  0.00000000  0.00000000       0.012
  -0.28571429  0.00000000  0.00000000       0.012
  -0.14285714  0.00000000  0.00000000       0.012
   0.14285714  0.14285714  0.00000000       0.017
   0.28571429  0.14285714  0.00000000       0.035
   0.42857143  0.14285714  0.00000000       0.035
  -0.42857143  0.14285714  0.00000000       0.035
  -0.28571429  0.14285714  0.00000000       0.035
  -0.14285714  0.14285714  0.00000000       0.035
   0.28571429  0.28571429  0.00000000       0.017
   0.42857143  0.28571429  0.00000000       0.035
  -0.42857143  0.28571429  0.00000000       0.035
  -0.28571429  0.28571429  0.00000000       0.035
  -0.14285714  0.28571429  0.00000000       0.035
   0.42857143  0.42857143  0.00000000       0.017
  -0.42857143  0.42857143  0.00000000       0.035
  -0.28571429  0.42857143  0.00000000       0.035
  -0.14285714  0.42857143  0.00000000       0.035
  -0.28571429 -0.42857143  0.00000000       0.035
  -0.14285714 -0.42857143  0.00000000       0.035
  -0.14285714 -0.28571429  0.00000000       0.035
   0.42857143  0.28571429  0.14285714       0.070
  -0.42857143  0.28571429  0.14285714       0.070
  -0.28571429  0.28571429  0.14285714       0.070
  -0.42857143  0.42857143  0.14285714       0.070
  -0.28571429  0.42857143  0.14285714       0.070
 
 position of ions in fractional coordinates (direct lattice) 
   0.00000000  0.00000000  0.00000000
   0.75000000  0.75000000  0.75000000
 
 position of ions in cartesian coordinates  (Angst):
   0.00000000  0.00000000  0.00000000
   4.54380000  4.54380000  4.54380000
 
 Euler angles ALPHA=     0.0000000  BETA=     0.0000000

 transformation matrix from SAXIS to cartesian coordinates
 ---------------------------------------------------------
     1.0000000 m_x     0.0000000 m_y     0.0000000 m_z
     0.0000000 m_x     1.0000000 m_y     0.0000000 m_z
     0.0000000 m_x     0.0000000 m_y     1.0000000 m_z

 transformation matrix from cartesian coordinates to SAXIS
 ---------------------------------------------------------
     1.0000000 m_x     0.0000000 m_y     0.0000000 m_z
     0.0000000 m_x     1.0000000 m_y     0.0000000 m_z
     0.0000000 m_x     0.0000000 m_y     1.0000000 m_z




--------------------------------------------------------------------------------------------------------


 k-point  1 :   0.0000 0.0000 0.0000  plane waves:    1930
 k-point  2 :   0.1429 0.0000 0.0000  plane waves:    1978
 k-point  3 :   0.2857 0.0000 0.0000  plane waves:    2020
 k-point  4 :   0.4286 0.0000 0.0000  plane waves:    2034
 k-point  5 :  -0.4286 0.0000 0.0000  plane waves:    2034
 k-point  6 :  -0.2857 0.0000 0.0000  plane waves:    2020
 k-point  7 :  -0.1429 0.0000 0.0000  plane waves:    1978
 k-point  8 :   0.1429 0.1429 0.0000  plane waves:    1988
 k-point  9 :   0.2857 0.1429 0.0000  plane waves:    2000
 k-point 10 :   0.4286 0.1429 0.0000  plane waves:    2020
 k-point 11 :  -0.4286 0.1429 0.0000  plane waves:    2012
 k-point 12 :  -0.2857 0.1429 0.0000  plane waves:    2036
 k-point 13 :  -0.1429 0.1429 0.0000  plane waves:    1990
 k-point 14 :   0.2857 0.2857 0.0000  plane waves:    2036
 k-point 15 :   0.4286 0.2857 0.0000  plane waves:    2024
 k-point 16 :  -0.4286 0.2857 0.0000  plane waves:    2022
 k-point 17 :  -0.2857 0.2857 0.0000  plane waves:    2022
 k-point 18 :  -0.1429 0.2857 0.0000  plane waves:    2036
 k-point 19 :   0.4286 0.4286 0.0000  plane waves:    2012
 k-point 20 :  -0.4286 0.4286 0.0000  plane waves:    2026
 k-point 21 :  -0.2857 0.4286 0.0000  plane waves:    2022
 k-point 22 :  -0.1429 0.4286 0.0000  plane waves:    2012
 k-point 23 :  -0.2857-0.4286 0.0000  plane waves:    2024
 k-point 24 :  -0.1429-0.4286 0.0000  plane waves:    2020
 k-point 25 :  -0.1429-0.2857 0.0000  plane waves:    2000
 k-point 26 :   0.4286 0.2857 0.1429  plane waves:    2022
 k-point 27 :  -0.4286 0.2857 0.1429  plane waves:    2026
 k-point 28 :  -0.2857 0.2857 0.1429  plane waves:    2026
 k-point 29 :  -0.4286 0.4286 0.1429  plane waves:    2038
 k-point 30 :  -0.2857 0.4286 0.1429  plane waves:    2028

 maximum and minimum number of plane-waves per node :      1034      962

 maximum number of plane-waves:      2038
 maximum index in each direction: 
   IXMAX=    7   IYMAX=    7   IZMAX=    6
   IXMIN=   -7   IYMIN=   -7   IZMIN=   -7


 parallel 3D FFT for wavefunctions:
    minimum data exchange during FFTs selected (reduces bandwidth)
 parallel 3D FFT for charge:
    minimum data exchange during FFTs selected (reduces bandwidth)


 total amount of memory used by VASP MPI-rank0    38738. kBytes
=======================================================================

   base      :      30000. kBytes
   nonl-proj :       3248. kBytes
   fftplans  :        830. kBytes
   grid      :       3096. kBytes
   one-center:         32. kBytes
   wavefun   :       1532. kBytes
 
     INWAV:  cpu time    0.0000: real time    0.0002
 Broyden mixing: mesh for mixing (old mesh)
   NGX = 13   NGY = 13   NGZ = 13
  (NGX  = 48   NGY  = 48   NGZ  = 48)
  gives a total of   2197 points

 initial charge density was supplied:
 charge density of overlapping atoms calculated
 number of electron       8.0000000 magnetization       0.0000000      0.0000000      0.0000000
 keeping initial charge density in first step


--------------------------------------------------------------------------------------------------------


 Maximum index for augmentation-charges         2498 (set IRDMAX)


--------------------------------------------------------------------------------------------------------


 First call to EWALD:  gamma=   0.464
 Maximum number of real-space cells 3x 3x 3
 Maximum number of reciprocal cells 3x 3x 3

    FEWALD:  cpu time    0.0044: real time    0.0044


--------------------------------------- Iteration      1(   1)  ---------------------------------------


    POTLOK:  cpu time    0.0310: real time    0.0371
    SETDIJ:  cpu time    2.9852: real time    2.9864
     EDDAV:  cpu time    0.3975: real time    0.4005
       DOS:  cpu time    0.0006: real time    0.0007
    --------------------------------------------
      LOOP:  cpu time    3.4143: real time    3.4247

 eigenvalue-minimisations  :  1260
 total energy-change (2. order) : 0.1900832E+02  (-0.2512220E+03)
 number of electron       8.0000000 magnetization       0.0000000      0.0000000      0.0000000
 augmentation part        8.0000000 magnetization       0.0000000      0.0000000      0.0000000

 Free energy of the ion-electron system (eV)
  ---------------------------------------------------
  alpha Z        PSCENC =         6.67624893
  Ewald energy   TEWEN  =      -213.84743004
  -Hartree energ DENC   =       -21.29595069
  -exchange      EXHF   =         0.00000000
  -V(xc)+E(xc)   XCENC  =       -67.69638834
  PAW double counting   =       241.28716127     -160.47085023
  entropy T*S    EENTRO =        -0.00062798
  eigenvalues    EBANDS =        10.37994569
  atomic energy  EATOM  =       223.97621261
  Solvation  Ediel_sol  =         0.00000000
  ---------------------------------------------------
  free energy    TOTEN  =        19.00832122 eV

  energy without entropy =       19.00894920  energy(sigma->0) =       19.00863521


--------------------------------------------------------------------------------------------------------




--------------------------------------- Iteration      1(   2)  ---------------------------------------


     EDDAV:  cpu time    0.4598: real time    0.4613
       DOS:  cpu time    0.0003: real time    0.0003
    --------------------------------------------
      LOOP:  cpu time    0.4601: real time    0.4615

 eigenvalue-minimisations  :  1554
 total energy-change (2. order) :-0.2566122E+02  (-0.2468223E+02)
 number of electron       8.0000000 magnetization       0.0000000      0.0000000      0.0000000
 augmentation part        8.0000000 magnetization       0.0000000      0.0000000      0.0000000

 Free energy of the ion-electron system (eV)
  ---------------------------------------------------
  alpha Z        PSCENC =         6.67624893
  Ewald energy   TEWEN  =      -213.84743004
  -Hartree energ DENC   =       -21.29595069
  -exchange      EXHF   =         0.00000000
  -V(xc)+E(xc)   XCENC  =       -67.69638834
  PAW double counting   =       241.28716127     -160.47085023
  entropy T*S    EENTRO =        -0.00004803
  eigenvalues    EBANDS =       -15.28185675
  atomic energy  EATOM  =       223.97621261
  Solvation  Ediel_sol  =         0.00000000
  ---------------------------------------------------
  free energy    TOTEN  =        -6.65290126 eV

  energy without entropy =       -6.65285323  energy(sigma->0) =       -6.65287725


--------------------------------------------------------------------------------------------------------




--------------------------------------- Iteration      1(   3)  ---------------------------------------


     EDDAV:  cpu time    0.4681: real time    0.4691
       DOS:  cpu time    0.0003: real time    0.0003
    --------------------------------------------
      LOOP:  cpu time    0.4684: real time    0.4694

 eigenvalue-minimisations  :  1596
 total energy-change (2. order) :-0.1300524E+01  (-0.1297386E+01)
 number of electron       8.0000000 magnetization       0.0000000      0.0000000      0.0000000
 augmentation part        8.0000000 magnetization       0.0000000      0.0000000      0.0000000

 Free energy of the ion-electron system (eV)
  ---------------------------------------------------
  alpha Z        PSCENC =         6.67624893
  Ewald energy   TEWEN  =      -213.84743004
  -Hartree energ DENC   =       -21.29595069
  -exchange      EXHF   =         0.00000000
  -V(xc)+E(xc)   XCENC  =       -67.69638834
  PAW double counting   =       241.28716127     -160.47085023
  entropy T*S    EENTRO =        -0.00014330
  eigenvalues    EBANDS =       -16.58228585
  atomic energy  EATOM  =       223.97621261
  Solvation  Ediel_sol  =         0.00000000
  ---------------------------------------------------
  free energy    TOTEN  =        -7.95342564 eV

  energy without entropy =       -7.95328234  energy(sigma->0) =       -7.95335399


--------------------------------------------------------------------------------------------------------




--------------------------------------- Iteration      1(   4)  ---------------------------------------


     EDDAV:  cpu time    0.4409: real time    0.4419
       DOS:  cpu time    0.0004: real time    0.0003
    --------------------------------------------
      LOOP:  cpu time    0.4413: real time    0.4422

 eigenvalue-minimisations  :  1442
 total energy-change (2. order) :-0.9056324E-02  (-0.9055845E-02)
 number of electron       8.0000000 magnetization       0.0000000      0.0000000      0.0000000
 augmentation part        8.0000000 magnetization       0.0000000      0.0000000      0.0000000

 Free energy of the ion-electron system (eV)
  ---------------------------------------------------
  alpha Z        PSCENC =         6.67624893
  Ewald energy   TEWEN  =      -213.84743004
  -Hartree energ DENC   =       -21.29595069
  -exchange      EXHF   =         0.00000000
  -V(xc)+E(xc)   XCENC  =       -67.69638834
  PAW double counting   =       241.28716127     -160.47085023
  entropy T*S    EENTRO =        -0.00014236
  eigenvalues    EBANDS =       -16.59134312
  atomic energy  EATOM  =       223.97621261
  Solvation  Ediel_sol  =         0.00000000
  ---------------------------------------------------
  free energy    TOTEN  =        -7.96248196 eV

  energy without entropy =       -7.96233960  energy(sigma->0) =       -7.96241078


--------------------------------------------------------------------------------------------------------




--------------------------------------- Iteration      1(   5)  ---------------------------------------


     EDDAV:  cpu time    0.4805: real time    0.4822
       DOS:  cpu time    0.0003: real time    0.0003
    CHARGE:  cpu time    0.0684: real time    0.0684
    MIXING:  cpu time    0.0264: real time    0.0264
    --------------------------------------------
      LOOP:  cpu time    0.5756: real time    0.5774

 eigenvalue-minimisations  :  1659
 total energy-change (2. order) :-0.5050053E-04  (-0.5050001E-04)
 number of electron       8.0000004 magnetization       0.0000000      0.0000000     -0.0000000
 augmentation part       -1.4750551 magnetization       0.0000000      0.0000000     -0.0000000

 Broyden mixing:
  rms(total) = 0.48783E+00    rms(broyden)= 0.48783E+00
  rms(prec ) = 0.92943E+00
  weight for this iteration     100.00

 Free energy of the ion-electron system (eV)
  ---------------------------------------------------
  alpha Z        PSCENC =         6.67624893
  Ewald energy   TEWEN  =      -213.84743004
  -Hartree energ DENC   =       -21.29595069
  -exchange      EXHF   =         0.00000000
  -V(xc)+E(xc)   XCENC  =       -67.69638834
  PAW double counting   =       241.28716127     -160.47085023
  entropy T*S    EENTRO =        -0.00014236
  eigenvalues    EBANDS =       -16.59139362
  atomic energy  EATOM  =       223.97621261
  Solvation  Ediel_sol  =         0.00000000
  ---------------------------------------------------
  free energy    TOTEN  =        -7.96253246 eV

  energy without entropy =       -7.96239011  energy(sigma->0) =       -7.96246128


--------------------------------------------------------------------------------------------------------




--------------------------------------- Iteration      1(   6)  ---------------------------------------


    POTLOK:  cpu time    0.0313: real time    0.0319
    SETDIJ:  cpu time    3.0289: real time    3.0297
    EDDIAG:  cpu time    0.1096: real time    0.1101
  RMM-DIIS:  cpu time    0.2722: real time    0.2722
    ORTHCH:  cpu time    0.0100: real time    0.0100
       DOS:  cpu time    0.0089: real time    0.0089
    CHARGE:  cpu time    0.0650: real time    0.0650
    MIXING:  cpu time    0.0200: real time    0.0200
    --------------------------------------------
      LOOP:  cpu time    3.5459: real time    3.5478

 eigenvalue-minimisations  :  1261
 total energy-change (2. order) : 0.1190861E+00  (-0.2236652E-02)
 number of electron       8.0000003 magnetization       0.0000000      0.0000000     -0.0000000
 augmentation part       -1.4747556 magnetization       0.0000000      0.0000000     -0.0000000

 Broyden mixing:
  rms(total) = 0.31656E+00    rms(broyden)= 0.31656E+00
  rms(prec ) = 0.69723E+00
  weight for this iteration     100.00

 eigenvalues of (default mixing * dielectric matrix)
  average eigenvalue GAMMA=   2.2862
  2.2862

 Free energy of the ion-electron system (eV)
  ---------------------------------------------------
  alpha Z        PSCENC =         6.67624893
  Ewald energy   TEWEN  =      -213.84743004
  -Hartree energ DENC   =       -22.11596069
  -exchange      EXHF   =         0.00000000
  -V(xc)+E(xc)   XCENC  =       -67.52652860
  PAW double counting   =       337.49662207     -256.91325073
  entropy T*S    EENTRO =        -0.00022252
  eigenvalues    EBANDS =       -15.58913740
  atomic energy  EATOM  =       223.97621261
  Solvation  Ediel_sol  =         0.00000000
  ---------------------------------------------------
  free energy    TOTEN  =        -7.84344636 eV

  energy without entropy =       -7.84322384  energy(sigma->0) =       -7.84333510


--------------------------------------------------------------------------------------------------------




--------------------------------------- Iteration      1(   7)  ---------------------------------------


    POTLOK:  cpu time    0.0368: real time    0.0370
    SETDIJ:  cpu time    3.0002: real time    3.0011
    EDDIAG:  cpu time    0.0997: real time    0.1011
  RMM-DIIS:  cpu time    0.2626: real time    0.2627
    ORTHCH:  cpu time    0.0023: real time    0.0023
       DOS:  cpu time    0.0319: real time    0.0319
    CHARGE:  cpu time    0.0597: real time    0.0597
    MIXING:  cpu time    0.0223: real time    0.0223
    --------------------------------------------
      LOOP:  cpu time    3.5155: real time    3.5181

 eigenvalue-minimisations  :  1268
 total energy-change (2. order) : 0.1831584E+00  (-0.1614432E-01)
 number of electron       8.0000003 magnetization       0.0000000      0.0000000      0.0000000
 augmentation part       -1.4791166 magnetization       0.0000000      0.0000000      0.0000000

 Broyden mixing:
  rms(total) = 0.14456E+00    rms(broyden)= 0.14456E+00
  rms(prec ) = 0.22838E+00
  weight for this iteration     100.00

 eigenvalues of (default mixing * dielectric matrix)
  average eigenvalue GAMMA=   1.5990
  0.6366  2.5614

 Free energy of the ion-electron system (eV)
  ---------------------------------------------------
  alpha Z        PSCENC =         6.67624893
  Ewald energy   TEWEN  =      -213.84743004
  -Hartree energ DENC   =       -24.52870158
  -exchange      EXHF   =         0.00000000
  -V(xc)+E(xc)   XCENC  =       -67.03782850
  PAW double counting   =       665.08898396     -584.95926120
  entropy T*S    EENTRO =        -0.00016449
  eigenvalues    EBANDS =       -13.02834767
  atomic energy  EATOM  =       223.97621261
  Solvation  Ediel_sol  =         0.00000000
  ---------------------------------------------------
  free energy    TOTEN  =        -7.66028798 eV

  energy without entropy =       -7.66012349  energy(sigma->0) =       -7.66020574


--------------------------------------------------------------------------------------------------------




--------------------------------------- Iteration      1(   8)  ---------------------------------------


    POTLOK:  cpu time    0.0360: real time    0.0368
    SETDIJ:  cpu time    3.0011: real time    3.0020
    EDDIAG:  cpu time    0.1216: real time    0.1222
  RMM-DIIS:  cpu time    0.2582: real time    0.2582
    ORTHCH:  cpu time    0.0380: real time    0.0380
       DOS:  cpu time    0.0109: real time    0.0109
    CHARGE:  cpu time    0.0567: real time    0.0567
    MIXING:  cpu time    0.0294: real time    0.0294
    --------------------------------------------
      LOOP:  cpu time    3.5519: real time    3.5542

 eigenvalue-minimisations  :  1424
 total energy-change (2. order) : 0.3161149E-02  (-0.7589951E-03)
 number of electron       8.0000003 magnetization      -0.0000000     -0.0000000     -0.0000000
 augmentation part       -1.4851817 magnetization      -0.0000000     -0.0000000     -0.0000000

 Broyden mixing:
  rms(total) = 0.11328E+00    rms(broyden)= 0.11328E+00
  rms(prec ) = 0.16519E+00
  weight for this iteration     100.00

 eigenvalues of (default mixing * dielectric matrix)
  average eigenvalue GAMMA=   2.4547
  3.3693  3.3693  0.6253

 Free energy of the ion-electron system (eV)
  ---------------------------------------------------
  alpha Z        PSCENC =         6.67624893
  Ewald energy   TEWEN  =      -213.84743004
  -Hartree energ DENC   =       -24.81276969
  -exchange      EXHF   =         0.00000000
  -V(xc)+E(xc)   XCENC  =       -66.98400926
  PAW double counting   =       628.49900558     -548.31663552
  entropy T*S    EENTRO =        -0.00016449
  eigenvalues    EBANDS =       -12.84758496
  atomic energy  EATOM  =       223.97621261
  Solvation  Ediel_sol  =         0.00000000
  ---------------------------------------------------
  free energy    TOTEN  =        -7.65712683 eV

  energy without entropy =       -7.65696234  energy(sigma->0) =       -7.65704459


--------------------------------------------------------------------------------------------------------




--------------------------------------- Iteration      1(   9)  ---------------------------------------


    POTLOK:  cpu time    0.0281: real time    0.0282
    SETDIJ:  cpu time    3.0029: real time    3.0036
    EDDIAG:  cpu time    0.1051: real time    0.1063
  RMM-DIIS:  cpu time    0.2588: real time    0.2588
    ORTHCH:  cpu time    0.0230: real time    0.0230
       DOS:  cpu time    0.0113: real time    0.0113
    CHARGE:  cpu time    0.0663: real time    0.0663
    MIXING:  cpu time    0.0264: real time    0.0264
    --------------------------------------------
      LOOP:  cpu time    3.5218: real time    3.5240

 eigenvalue-minimisations  :  1293
 total energy-change (2. order) :-0.4973540E-02  (-0.1832294E-02)
 number of electron       8.0000003 magnetization      -0.0000000      0.0000000      0.0000000
 augmentation part       -1.4992510 magnetization      -0.0000000      0.0000000      0.0000000

 Broyden mixing:
  rms(total) = 0.21877E-01    rms(broyden)= 0.21877E-01
  rms(prec ) = 0.52641E-01
  weight for this iteration     100.00

 eigenvalues of (default mixing * dielectric matrix)
  average eigenvalue GAMMA=   2.5483
  4.6044  2.4818  2.4818  0.6252

 Free energy of the ion-electron system (eV)
  ---------------------------------------------------
  alpha Z        PSCENC =         6.67624893
  Ewald energy   TEWEN  =      -213.84743004
  -Hartree energ DENC   =       -25.27199425
  -exchange      EXHF   =         0.00000000
  -V(xc)+E(xc)   XCENC  =       -66.90057975
  PAW double counting   =       506.61225779     -426.25766347
  entropy T*S    EENTRO =        -0.00016449
  eigenvalues    EBANDS =       -12.64898771
  atomic energy  EATOM  =       223.97621261
  Solvation  Ediel_sol  =         0.00000000
  ---------------------------------------------------
  free energy    TOTEN  =        -7.66210037 eV

  energy without entropy =       -7.66193588  energy(sigma->0) =       -7.66201813


--------------------------------------------------------------------------------------------------------




--------------------------------------- Iteration      1(  10)  ---------------------------------------


    POTLOK:  cpu time    0.0352: real time    0.0358
    SETDIJ:  cpu time    3.0072: real time    3.0079
    EDDIAG:  cpu time    0.1084: real time    0.1090
  RMM-DIIS:  cpu time    0.2647: real time    0.2650
    ORTHCH:  cpu time    0.0153: real time    0.0153
       DOS:  cpu time    0.0082: real time    0.0082
    CHARGE:  cpu time    0.0633: real time    0.0634
    MIXING:  cpu time    0.0254: real time    0.0254
    --------------------------------------------
      LOOP:  cpu time    3.5278: real time    3.5300

 eigenvalue-minimisations  :  1339
 total energy-change (2. order) :-0.1992798E-02  (-0.2378321E-03)
 number of electron       8.0000003 magnetization       0.0000000      0.0000000      0.0000000
 augmentation part       -1.4989927 magnetization       0.0000000      0.0000000      0.0000000

 Broyden mixing:
  rms(total) = 0.14765E-01    rms(broyden)= 0.14765E-01
  rms(prec ) = 0.38160E-01
  weight for this iteration     100.00

 eigenvalues of (default mixing * dielectric matrix)
  average eigenvalue GAMMA=   2.4574
  4.7151  3.2609  2.6246  1.0612  0.6252

 Free energy of the ion-electron system (eV)
  ---------------------------------------------------
  alpha Z        PSCENC =         6.67624893
  Ewald energy   TEWEN  =      -213.84743004
  -Hartree energ DENC   =       -25.47218774
  -exchange      EXHF   =         0.00000000
  -V(xc)+E(xc)   XCENC  =       -66.87390671
  PAW double counting   =       539.13219093     -458.84066301
  entropy T*S    EENTRO =        -0.00016449
  eigenvalues    EBANDS =       -12.41439365
  atomic energy  EATOM  =       223.97621261
  Solvation  Ediel_sol  =         0.00000000
  ---------------------------------------------------
  free energy    TOTEN  =        -7.66409317 eV

  energy without entropy =       -7.66392868  energy(sigma->0) =       -7.66401092


--------------------------------------------------------------------------------------------------------




--------------------------------------- Iteration      1(  11)  ---------------------------------------


    POTLOK:  cpu time    0.0295: real time    0.0297
    SETDIJ:  cpu time    3.0113: real time    3.0119
    EDDIAG:  cpu time    0.1056: real time    0.1061
  RMM-DIIS:  cpu time    0.2617: real time    0.2619
    ORTHCH:  cpu time    0.0204: real time    0.0204
       DOS:  cpu time    0.0049: real time    0.0049
    CHARGE:  cpu time    0.0626: real time    0.0626
    MIXING:  cpu time    0.0265: real time    0.0265
    --------------------------------------------
      LOOP:  cpu time    3.5224: real time    3.5240

 eigenvalue-minimisations  :  1279
 total energy-change (2. order) :-0.1388284E-02  (-0.1525749E-03)
 number of electron       8.0000003 magnetization       0.0000000      0.0000000     -0.0000000
 augmentation part       -1.4967321 magnetization       0.0000000      0.0000000     -0.0000000

 Broyden mixing:
  rms(total) = 0.13615E-01    rms(broyden)= 0.13615E-01
  rms(prec ) = 0.20110E-01
  weight for this iteration     100.00

 eigenvalues of (default mixing * dielectric matrix)
  average eigenvalue GAMMA=   2.4227
  4.8673  2.9092  2.6174  2.6174  0.6252  0.8994

 Free energy of the ion-electron system (eV)
  ---------------------------------------------------
  alpha Z        PSCENC =         6.67624893
  Ewald energy   TEWEN  =      -213.84743004
  -Hartree energ DENC   =       -25.45504608
  -exchange      EXHF   =         0.00000000
  -V(xc)+E(xc)   XCENC  =       -66.89342068
  PAW double counting   =       537.67541952     -457.39579933
  entropy T*S    EENTRO =        -0.00016449
  eigenvalues    EBANDS =       -12.40150189
  atomic energy  EATOM  =       223.97621261
  Solvation  Ediel_sol  =         0.00000000
  ---------------------------------------------------
  free energy    TOTEN  =        -7.66548145 eV

  energy without entropy =       -7.66531697  energy(sigma->0) =       -7.66539921


--------------------------------------------------------------------------------------------------------




--------------------------------------- Iteration      1(  12)  ---------------------------------------


    POTLOK:  cpu time    0.0326: real time    0.0328
    SETDIJ:  cpu time    3.0187: real time    3.0199
    EDDIAG:  cpu time    0.1046: real time    0.1050
  RMM-DIIS:  cpu time    0.1711: real time    0.2463
    ORTHCH:  cpu time    0.0260: real time    0.0260
       DOS:  cpu time    0.0059: real time    0.0059
    CHARGE:  cpu time    0.0663: real time    0.0664
    MIXING:  cpu time    0.0269: real time    0.0269
    --------------------------------------------
      LOOP:  cpu time    3.4520: real time    3.5290

 eigenvalue-minimisations  :  1327
 total energy-change (2. order) :-0.4041577E-04  (-0.3179242E-04)
 number of electron       8.0000003 magnetization       0.0000000      0.0000000     -0.0000000
 augmentation part       -1.4965087 magnetization       0.0000000      0.0000000     -0.0000000

 Broyden mixing:
  rms(total) = 0.90500E-02    rms(broyden)= 0.90500E-02
  rms(prec ) = 0.10442E-01
  weight for this iteration     100.00

 eigenvalues of (default mixing * dielectric matrix)
  average eigenvalue GAMMA=   2.7838
  7.0295  4.3543  3.2353  2.6435  0.9482  0.6252  0.6506

 Free energy of the ion-electron system (eV)
  ---------------------------------------------------
  alpha Z        PSCENC =         6.67624893
  Ewald energy   TEWEN  =      -213.84743004
  -Hartree energ DENC   =       -25.55469363
  -exchange      EXHF   =         0.00000000
  -V(xc)+E(xc)   XCENC  =       -66.87959316
  PAW double counting   =       535.07311474     -454.76598329
  entropy T*S    EENTRO =        -0.00016449
  eigenvalues    EBANDS =       -12.34323354
  atomic energy  EATOM  =       223.97621261
  Solvation  Ediel_sol  =         0.00000000
  ---------------------------------------------------
  free energy    TOTEN  =        -7.66552187 eV

  energy without entropy =       -7.66535738  energy(sigma->0) =       -7.66543962


--------------------------------------------------------------------------------------------------------




--------------------------------------- Iteration      1(  13)  ---------------------------------------


    POTLOK:  cpu time    0.0293: real time    0.0298
    SETDIJ:  cpu time    3.0132: real time    3.0141
    EDDIAG:  cpu time    0.0612: real time    0.1148
  RMM-DIIS:  cpu time    0.2747: real time    0.2750
    ORTHCH:  cpu time    0.0093: real time    0.0093
       DOS:  cpu time    0.0086: real time    0.0086
    --------------------------------------------
      LOOP:  cpu time    3.3964: real time    3.4516

 eigenvalue-minimisations  :  1410
 total energy-change (2. order) :-0.5134871E-05  (-0.5038416E-05)
 number of electron       8.0000003 magnetization       0.0000000      0.0000000     -0.0000000
 augmentation part       -1.4965087 magnetization       0.0000000      0.0000000     -0.0000000

 Free energy of the ion-electron system (eV)
  ---------------------------------------------------
  alpha Z        PSCENC =         6.67624893
  Ewald energy   TEWEN  =      -213.84743004
  -Hartree energ DENC   =       -25.56295459
  -exchange      EXHF   =         0.00000000
  -V(xc)+E(xc)   XCENC  =       -66.88116177
  PAW double counting   =       532.43883574     -452.13062722
  entropy T*S    EENTRO =        -0.00016449
  eigenvalues    EBANDS =       -12.33448618
  atomic energy  EATOM  =       223.97621261
  Solvation  Ediel_sol  =         0.00000000
  ---------------------------------------------------
  free energy    TOTEN  =        -7.66552700 eV

  energy without entropy =       -7.66536252  energy(sigma->0) =       -7.66544476


--------------------------------------------------------------------------------------------------------




 average (electrostatic) potential at core
  the test charge radii are     1.4837  1.0621
  (the norm of the test charge is              1.0000)
       1 -39.0452       2 -50.8002
 
 
 
 E-fermi :   3.3779     XC(G=0):  -8.8378     alpha+bet : -8.8632


 k-point     1 :       0.0000    0.0000    0.0000
  band No.  band energies     occupation 
      1      -8.5431      1.00000
      2      -8.5431      1.00000
      3       3.0249      1.00000
      4       3.0249      1.00000
      5       3.0938      1.00000
      6       3.0938      1.00000
      7       3.3779      0.50000
      8       3.3779      0.50000
      9       3.3779      0.50000
     10       3.3779      0.50000
     11       6.9046      0.00000
     12       6.9046      0.00000
     13       7.3543      0.00000
     14       7.3543      0.00000
     15       7.3543      0.00000
     16       7.3543      0.00000
     17      10.7919      0.00000
     18      10.7919      0.00000
     19      12.7741      0.00000
     20      12.7741      0.00000
     21      12.7741      0.00000

 k-point     2 :       0.1429    0.0000    0.0000
  band No.  band energies     occupation 
      1      -8.3644      1.00000
      2      -8.3644      1.00000
      3       1.1154      1.00000
      4       1.1154      1.00000
      5       2.8986      1.00000
      6       2.8986      1.00000
      7       3.1369      1.00000
      8       3.1440      1.00000
      9       4.4638      0.00000
     10       4.4638      0.00000
     11       7.2937      0.00000
     12       7.2937      0.00000
     13       7.5543      0.00000
     14       7.5543      0.00000
     15       7.6961      0.00000
     16       7.6969      0.00000
     17      11.7570      0.00000
     18      11.7570      0.00000
     19      11.8461      0.00000
     20      11.8819      0.00000
     21      11.8819      0.00000

 k-point     3 :       0.2857    0.0000    0.0000
  band No.  band energies     occupation 
      1      -7.8854      1.00000
      2      -7.8854      1.00000
      3      -0.8882      1.00000
      4      -0.8882      1.00000
      5       2.4689      1.00000
      6       2.4689      1.00000
      7       2.7144      1.00000
      8       2.7216      1.00000
      9       4.4813      0.00000
     10       4.4813      0.00000
     11       7.8488      0.00000
     12       7.8488      0.00000
     13       8.0882      0.00000
     14       8.0915      0.00000
     15       8.8609      0.00000
     16       8.8609      0.00000
     17      11.4920      0.00000
     18      11.4920      0.00000
     19      11.8862      0.00000
     20      11.8863      0.00000
     21      11.8957      0.00000

 k-point     4 :       0.4286    0.0000    0.0000
  band No.  band energies     occupation 
      1      -7.3694      1.00000
      2      -7.3694      1.00000
      3      -2.2377      1.00000
      4      -2.2377      1.00000
      5       2.1926      1.00000
      6       2.1926      1.00000
      7       2.4443      1.00000
      8       2.4471      1.00000
      9       4.2800      0.00000
     10       4.2800      0.00000
     11       7.8888      0.00000
     12       7.8888      0.00000
     13       8.0664      0.00000
     14       8.0670      0.00000
     15      10.0370      0.00000
     16      10.0370      0.00000
     17      11.8817      0.00000
     18      11.8817      0.00000
     19      13.2637      0.00000
     20      13.2641      0.00000
     21      13.3562      0.00000

 k-point     5 :      -0.4286    0.0000    0.0000
  band No.  band energies     occupation 
      1      -7.3694      1.00000
      2      -7.3694      1.00000
      3      -2.2377      1.00000
      4      -2.2377      1.00000
      5       2.1926      1.00000
      6       2.1926      1.00000
      7       2.4443      1.00000
      8       2.4471      1.00000
      9       4.2800      0.00000
     10       4.2800      0.00000
     11       7.8888      0.00000
     12       7.8888      0.00000
     13       8.0664      0.00000
     14       8.0670      0.00000
     15      10.0370      0.00000
     16      10.0370      0.00000
     17      11.8817      0.00000
     18      11.8817      0.00000
     19      13.2637      0.00000
     20      13.2638      0.00000
     21      13.3590      0.00000

 k-point     6 :      -0.2857    0.0000    0.0000
  band No.  band energies     occupation 
      1      -7.8854      1.00000
      2      -7.8854      1.00000
      3      -0.8882      1.00000
      4      -0.8882      1.00000
      5       2.4689      1.00000
      6       2.4689      1.00000
      7       2.7144      1.00000
      8       2.7216      1.00000
      9       4.4813      0.00000
     10       4.4813      0.00000
     11       7.8488      0.00000
     12       7.8488      0.00000
     13       8.0882      0.00000
     14       8.0915      0.00000
     15       8.8609      0.00000
     16       8.8609      0.00000
     17      11.4920      0.00000
     18      11.4920      0.00000
     19      11.8862      0.00000
     20      11.8863      0.00000
     21      11.8956      0.00000

 k-point     7 :      -0.1429    0.0000    0.0000
  band No.  band energies     occupation 
      1      -8.3644      1.00000
      2      -8.3644      1.00000
      3       1.1154      1.00000
      4       1.1154      1.00000
      5       2.8986      1.00000
      6       2.8986      1.00000
      7       3.1369      1.00000
      8       3.1440      1.00000
      9       4.4638      0.00000
     10       4.4638      0.00000
     11       7.2937      0.00000
     12       7.2937      0.00000
     13       7.5543      0.00000
     14       7.5543      0.00000
     15       7.6961      0.00000
     16       7.6969      0.00000
     17      11.7570      0.00000
     18      11.7570      0.00000
     19      11.8460      0.00000
     20      11.8819      0.00000
     21      11.8819      0.00000

 k-point     8 :       0.1429    0.1429    0.0000
  band No.  band energies     occupation 
      1      -8.3041      1.00000
      2      -8.3041      1.00000
      3       1.0501      1.00000
      4       1.0501      1.00000
      5       2.5352      1.00000
      6       2.5352      1.00000
      7       2.6804      1.00000
      8       2.6804      1.00000
      9       5.2346      0.00000
     10       5.2346      0.00000
     11       6.3651      0.00000
     12       6.3651      0.00000
     13       8.0604      0.00000
     14       8.0604      0.00000
     15       8.2635      0.00000
     16       8.2635      0.00000
     17      10.6148      0.00000
     18      10.6148      0.00000
     19      12.3011      0.00000
     20      12.3011      0.00000
     21      12.9936      0.00000

 k-point     9 :       0.2857    0.1429    0.0000
  band No.  band energies     occupation 
      1      -7.9213      1.00000
      2      -7.9189      1.00000
      3      -0.4406      1.00000
      4      -0.4372      1.00000
      5       1.9975      1.00000
      6       2.0200      1.00000
      7       2.1909      1.00000
      8       2.1949      1.00000
      9       5.5962      0.00000
     10       5.5972      0.00000
     11       6.6160      0.00000
     12       6.6561      0.00000
     13       8.5954      0.00000
     14       8.6215      0.00000
     15       8.8336      0.00000
     16       8.8484      0.00000
     17      10.7385      0.00000
     18      10.7469      0.00000
     19      12.8884      0.00000
     20      12.9237      0.00000
     21      13.0255      0.00000

 k-point    10 :       0.4286    0.1429    0.0000
  band No.  band energies     occupation 
      1      -7.3899      1.00000
      2      -7.3823      1.00000
      3      -1.8889      1.00000
      4      -1.8718      1.00000
      5       1.4328      1.00000
      6       1.4534      1.00000
      7       1.9547      1.00000
      8       1.9565      1.00000
      9       5.3988      0.00000
     10       5.4053      0.00000
     11       7.4073      0.00000
     12       7.4341      0.00000
     13       8.7849      0.00000
     14       8.7892      0.00000
     15       9.2142      0.00000
     16       9.2761      0.00000
     17      11.9323      0.00000
     18      11.9884      0.00000
     19      13.1487      0.00000
     20      13.1569      0.00000
     21      13.9312      0.00000

 k-point    11 :      -0.4286    0.1429    0.0000
  band No.  band energies     occupation 
      1      -7.1795      1.00000
      2      -7.1684      1.00000
      3      -2.3476      1.00000
      4      -2.3230      1.00000
      5       1.1151      1.00000
      6       1.1281      1.00000
      7       2.0759      1.00000
      8       2.0809      1.00000
      9       5.3337      0.00000
     10       5.3364      0.00000
     11       7.5951      0.00000
     12       7.6204      0.00000
     13       8.5092      0.00000
     14       8.5101      0.00000
     15      10.2842      0.00000
     16      10.3239      0.00000
     17      12.1987      0.00000
     18      12.3381      0.00000
     19      13.0249      0.00000
     20      13.0514      0.00000
     21      13.2009      0.00000

 k-point    12 :      -0.2857    0.1429    0.0000
  band No.  band energies     occupation 
      1      -7.5678      1.00000
      2      -7.5609      1.00000
      3      -1.4683      1.00000
      4      -1.4497      1.00000
      5       1.2104      1.00000
      6       1.2214      1.00000
      7       2.4799      1.00000
      8       2.4885      1.00000
      9       5.4291      0.00000
     10       5.4440      0.00000
     11       7.8624      0.00000
     12       7.8799      0.00000
     13       8.2322      0.00000
     14       8.2367      0.00000
     15       8.9708      0.00000
     16       8.9831      0.00000
     17      11.3524      0.00000
     18      11.3821      0.00000
     19      12.5040      0.00000
     20      12.5693      0.00000
     21      13.9445      0.00000

 k-point    13 :      -0.1429    0.1429    0.0000
  band No.  band energies     occupation 
      1      -8.0834      1.00000
      2      -8.0812      1.00000
      3       0.0144      1.00000
      4       0.0183      1.00000
      5       1.8887      1.00000
      6       1.9069      1.00000
      7       2.9407      1.00000
      8       2.9520      1.00000
      9       5.2589      0.00000
     10       5.2755      0.00000
     11       7.2772      0.00000
     12       7.4215      0.00000
     13       7.7085      0.00000
     14       7.7467      0.00000
     15       8.4072      0.00000
     16       8.4952      0.00000
     17      10.9984      0.00000
     18      11.0307      0.00000
     19      12.0069      0.00000
     20      12.0127      0.00000
     21      12.9481      0.00000

 k-point    14 :       0.2857    0.2857    0.0000
  band No.  band energies     occupation 
      1      -7.6526      1.00000
      2      -7.6526      1.00000
      3      -0.8850      1.00000
      4      -0.8850      1.00000
      5       1.5916      1.00000
      6       1.5916      1.00000
      7       1.6571      1.00000
      8       1.6571      1.00000
      9       5.3568      0.00000
     10       5.3568      0.00000
     11       6.0427      0.00000
     12       6.0427      0.00000
     13       9.9397      0.00000
     14       9.9397      0.00000
     15      10.0920      0.00000
     16      10.0920      0.00000
     17      10.2036      0.00000
     18      10.2036      0.00000
     19      13.6325      0.00000
     20      13.6325      0.00000
     21      14.9354      0.00000

 k-point    15 :       0.4286    0.2857    0.0000
  band No.  band energies     occupation 
      1      -7.2051      1.00000
      2      -7.1967      1.00000
      3      -1.8245      1.00000
      4      -1.8059      1.00000
      5       0.8844      1.00000
      6       0.9030      1.00000
      7       1.3791      1.00000
      8       1.3795      1.00000
      9       5.4154      0.00000
     10       5.4401      0.00000
     11       6.4012      0.00000
     12       6.4236      0.00000
     13       9.5582      0.00000
     14       9.6254      0.00000
     15      10.4508      0.00000
     16      10.4695      0.00000
     17      12.2342      0.00000
     18      12.2669      0.00000
     19      14.4106      0.00000
     20      14.4269      0.00000
     21      15.0148      0.00000

 k-point    16 :      -0.4286    0.2857    0.0000
  band No.  band energies     occupation 
      1      -6.9173      1.00000
      2      -6.8985      1.00000
      3      -2.3213      1.00000
      4      -2.2761      1.00000
      5       0.1535      1.00000
      6       0.1595      1.00000
      7       1.5006      1.00000
      8       1.5036      1.00000
      9       5.5463      0.00000
     10       5.5488      0.00000
     11       7.8471      0.00000
     12       7.9359      0.00000
     13       9.5420      0.00000
     14       9.7113      0.00000
     15      10.0212      0.00000
     16      10.0425      0.00000
     17      11.5512      0.00000
     18      11.6831      0.00000
     19      13.2236      0.00000
     20      13.2581      0.00000
     21      15.1749      0.00000

 k-point    17 :      -0.2857    0.2857    0.0000
  band No.  band energies     occupation 
      1      -7.1218      1.00000
      2      -7.1052      1.00000
      3      -2.0219      1.00000
      4      -1.9753      1.00000
      5       0.1338      1.00000
      6       0.1352      1.00000
      7       1.9486      1.00000
      8       1.9545      1.00000
      9       5.8232      0.00000
     10       5.8480      0.00000
     11       8.2909      0.00000
     12       8.4151      0.00000
     13       9.0908      0.00000
     14       9.2168      0.00000
     15       9.2479      0.00000
     16       9.3025      0.00000
     17      11.6663      0.00000
     18      11.6867      0.00000
     19      11.8035      0.00000
     20      11.9439      0.00000
     21      15.3970      0.00000

 k-point    18 :      -0.1429    0.2857    0.0000
  band No.  band energies     occupation 
      1      -7.5678      1.00000
      2      -7.5609      1.00000
      3      -1.4683      1.00000
      4      -1.4497      1.00000
      5       1.2104      1.00000
      6       1.2214      1.00000
      7       2.4799      1.00000
      8       2.4885      1.00000
      9       5.4291      0.00000
     10       5.4440      0.00000
     11       7.8624      0.00000
     12       7.8799      0.00000
     13       8.2322      0.00000
     14       8.2367      0.00000
     15       8.9708      0.00000
     16       8.9831      0.00000
     17      11.3524      0.00000
     18      11.3821      0.00000
     19      12.5040      0.00000
     20      12.5693      0.00000
     21      13.9432      0.00000

 k-point    19 :       0.4286    0.4286    0.0000
  band No.  band energies     occupation 
      1      -6.9128      1.00000
      2      -6.9128      1.00000
      3      -2.2921      1.00000
      4      -2.2921      1.00000
      5       1.0306      1.00000
      6       1.0306      1.00000
      7       1.0512      1.00000
      8       1.0512      1.00000
      9       4.8837      0.00000
     10       4.8837      0.00000
     11       5.4790      0.00000
     12       5.4790      0.00000
     13      11.8299      0.00000
     14      11.8299      0.00000
     15      11.9853      0.00000
     16      11.9853      0.00000
     17      12.1276      0.00000
     18      12.1276      0.00000
     19      14.5222      0.00000
     20      14.5222      0.00000
     21      15.6832      0.00000

 k-point    20 :      -0.4286    0.4286    0.0000
  band No.  band energies     occupation 
      1      -6.7737      1.00000
      2      -6.7596      1.00000
      3      -2.4810      1.00000
      4      -2.4515      1.00000
      5       0.4531      1.00000
      6       0.4665      1.00000
      7       1.0909      1.00000
      8       1.0915      1.00000
      9       5.1371      0.00000
     10       5.1608      0.00000
     11       6.1600      0.00000
     12       6.1799      0.00000
     13      11.3195      0.00000
     14      11.3214      0.00000
     15      11.6422      0.00000
     16      11.6876      0.00000
     17      11.9535      0.00000
     18      12.1934      0.00000
     19      14.0827      0.00000
     20      14.1144      0.00000
     21      15.3355      0.00000

 k-point    21 :      -0.2857    0.4286    0.0000
  band No.  band energies     occupation 
      1      -6.9173      1.00000
      2      -6.8985      1.00000
      3      -2.3213      1.00000
      4      -2.2761      1.00000
      5       0.1535      1.00000
      6       0.1595      1.00000
      7       1.5006      1.00000
      8       1.5036      1.00000
      9       5.5463      0.00000
     10       5.5488      0.00000
     11       7.8471      0.00000
     12       7.9359      0.00000
     13       9.5420      0.00000
     14       9.7113      0.00000
     15      10.0212      0.00000
     16      10.0425      0.00000
     17      11.5512      0.00000
     18      11.6831      0.00000
     19      13.2236      0.00000
     20      13.2581      0.00000
     21      15.1740      0.00000

 k-point    22 :      -0.1429    0.4286    0.0000
  band No.  band energies     occupation 
      1      -7.1795      1.00000
      2      -7.1684      1.00000
      3      -2.3476      1.00000
      4      -2.3230      1.00000
      5       1.1151      1.00000
      6       1.1281      1.00000
      7       2.0759      1.00000
      8       2.0809      1.00000
      9       5.3337      0.00000
     10       5.3364      0.00000
     11       7.5951      0.00000
     12       7.6204      0.00000
     13       8.5092      0.00000
     14       8.5101      0.00000
     15      10.2842      0.00000
[...]
 -0.000   0.000  -0.000   0.000  -0.000  -0.094  -0.000   0.000   3.950   0.000  -0.000  -0.165  -0.000   0.000   6.784   0.000
 -0.000   0.000  -0.000   0.000   6.784   0.000  -0.000   0.000  -0.000   0.165  11.710   0.000  -0.000   0.000  -0.000   0.291
 -0.000   0.000  -0.000   0.000  -0.000   0.000   6.784   0.000  -0.000   0.000  -0.000   0.000  11.710   0.000  -0.000   0.000
 -0.000   0.000  -0.000   0.000  -0.000  -0.165  -0.000   0.000   6.784   0.000  -0.000  -0.291  -0.000   0.000  11.710   0.000
 -0.000   0.000  -0.000   0.000  -0.000   0.000  -0.007   0.000  -0.000   0.000  -0.000   0.000  -0.011   0.000  -0.000   0.000
 -0.000   0.000  -0.000   0.000  -0.000   0.000  -0.000   0.000  -0.007   0.000  -0.000   0.000  -0.000   0.000  -0.011   0.000
 -0.000   0.000  -0.000   0.000   0.000   0.000  -0.000   0.000   0.000   0.000   0.000   0.000  -0.000   0.000   0.000   0.000
 -0.000   0.000  -0.000   0.000  -0.007   0.000  -0.000   0.000   0.000   0.000  -0.011   0.000  -0.000   0.000   0.000   0.000
 -0.000   0.000  -0.000   0.000   0.000   0.000   0.000   0.000  -0.000   0.000   0.000   0.000   0.000   0.000  -0.000   0.000
 pseudopotential strength for first ion, spin component:           2
 -0.000   0.000  -0.000   0.000   0.000  -0.000   0.000  -0.000   0.000  -0.000   0.000  -0.000   0.000  -0.000   0.000  -0.000
 -0.000   0.000  -0.000   0.000   0.000  -0.000   0.000  -0.000   0.000  -0.000   0.000  -0.000   0.000  -0.000   0.000  -0.000
  0.000  -0.000   0.000  -0.000   0.000   0.000  -0.000  -0.094   0.000   0.000   0.000   0.000  -0.000  -0.165   0.000   0.000
  0.000  -0.000   0.000  -0.000  -0.000   0.094  -0.000   0.000  -0.094   0.000  -0.000   0.165  -0.000   0.000  -0.165   0.000
  0.000  -0.000   0.000  -0.000   0.000   0.000   0.094   0.000  -0.000   0.000   0.000   0.000   0.165   0.000  -0.000   0.000
  0.000  -0.000   0.000  -0.000   0.000   0.000  -0.000  -0.165   0.000   0.000   0.000   0.000  -0.000  -0.291   0.000   0.000
  0.000  -0.000   0.000  -0.000  -0.000   0.165  -0.000   0.000  -0.165   0.000  -0.000   0.291  -0.000   0.000  -0.291   0.000
  0.000  -0.000   0.000  -0.000   0.000   0.000   0.165   0.000  -0.000   0.000   0.000   0.000   0.291   0.000  -0.000   0.000
  0.000   0.000   0.000   0.000   0.000  -0.000   0.000  -0.000  -0.000   0.000   0.000  -0.000   0.000  -0.000  -0.000   0.000
 -0.000  -0.000  -0.000  -0.000  -0.000  -0.000   0.000  -0.000   0.000  -0.000  -0.000  -0.000   0.000  -0.000   0.000  -0.000
 -0.000  -0.000  -0.000  -0.000   0.000  -0.000   0.000   0.000  -0.000   0.000   0.000  -0.000   0.000   0.000  -0.000   0.000
 -0.000   0.000  -0.000   0.000   0.000  -0.000  -0.000   0.000   0.000  -0.000   0.000  -0.000  -0.000   0.000   0.000  -0.000
 -0.000   0.000  -0.000   0.000   0.000   0.000   0.000  -0.000  -0.000  -0.000   0.000   0.000   0.000  -0.000  -0.000  -0.000
 pseudopotential strength for first ion, spin component:           3
 -0.000  -0.000  -0.000  -0.000   0.000   0.000   0.000   0.000   0.000   0.000   0.000   0.000   0.000   0.000   0.000   0.000
 -0.000  -0.000  -0.000  -0.000   0.000   0.000   0.000   0.000   0.000   0.000   0.000   0.000   0.000   0.000   0.000   0.000
  0.000   0.000   0.000   0.000   0.000  -0.000  -0.000  -0.094   0.000  -0.000   0.000  -0.000  -0.000  -0.165   0.000  -0.000
  0.000   0.000   0.000   0.000  -0.000   0.094  -0.000  -0.000   0.094  -0.000  -0.000   0.165  -0.000  -0.000   0.165  -0.000
  0.000   0.000   0.000   0.000   0.000  -0.000  -0.094  -0.000  -0.000  -0.000   0.000  -0.000  -0.165  -0.000  -0.000  -0.000
  0.000   0.000   0.000   0.000   0.000  -0.000  -0.000  -0.165   0.000  -0.000   0.000  -0.000  -0.000  -0.291   0.000  -0.000
  0.000   0.000   0.000   0.000  -0.000   0.165  -0.000  -0.000   0.165  -0.000  -0.000   0.291  -0.000  -0.000   0.291  -0.000
  0.000   0.000   0.000   0.000   0.000  -0.000  -0.165  -0.000  -0.000  -0.000   0.000  -0.000  -0.291  -0.000  -0.000  -0.000
  0.000  -0.000   0.000  -0.000   0.000   0.000   0.000   0.000  -0.000  -0.000   0.000   0.000   0.000   0.000  -0.000  -0.000
 -0.000   0.000  -0.000   0.000  -0.000   0.000   0.000   0.000   0.000   0.000  -0.000   0.000   0.000   0.000   0.000   0.000
 -0.000   0.000  -0.000   0.000   0.000   0.000   0.000  -0.000  -0.000  -0.000   0.000   0.000   0.000  -0.000  -0.000  -0.000
 -0.000  -0.000  -0.000  -0.000   0.000   0.000  -0.000  -0.000   0.000   0.000   0.000   0.000  -0.000  -0.000   0.000   0.000
 -0.000  -0.000  -0.000  -0.000   0.000  -0.000   0.000   0.000  -0.000   0.000   0.000  -0.000   0.000   0.000  -0.000   0.000
 pseudopotential strength for first ion, spin component:           4
 21.444   0.000  25.654   0.000  -0.000   0.000  -0.000   0.000  -0.000   0.000  -0.000   0.000  -0.000   0.000  -0.000   0.000
 25.654   0.000  30.704   0.000  -0.000   0.000  -0.000   0.000  -0.000   0.000  -0.000   0.000  -0.000   0.000  -0.000   0.000
 -0.000   0.000  -0.000   0.000   3.950   0.000  -0.000   0.000  -0.000  -0.094   6.784   0.000  -0.000   0.000  -0.000  -0.165
 -0.000   0.000  -0.000   0.000  -0.000   0.000   3.950   0.000  -0.000   0.000  -0.000   0.000   6.784   0.000  -0.000   0.000
 -0.000   0.000  -0.000   0.000  -0.000   0.094  -0.000   0.000   3.950   0.000  -0.000   0.165  -0.000   0.000   6.784   0.000
 -0.000   0.000  -0.000   0.000   6.784   0.000  -0.000   0.000  -0.000  -0.165  11.710   0.000  -0.000   0.000  -0.000  -0.291
 -0.000   0.000  -0.000   0.000  -0.000   0.000   6.784   0.000  -0.000   0.000  -0.000   0.000  11.710   0.000  -0.000   0.000
 -0.000   0.000  -0.000   0.000  -0.000   0.165  -0.000   0.000   6.784   0.000  -0.000   0.291  -0.000   0.000  11.710   0.000
 -0.000   0.000  -0.000   0.000  -0.000   0.000  -0.007   0.000  -0.000   0.000  -0.000   0.000  -0.011   0.000  -0.000   0.000
 -0.000   0.000  -0.000   0.000   0.000   0.000  -0.000   0.000  -0.007   0.000   0.000   0.000  -0.000   0.000  -0.011   0.000
 -0.000   0.000  -0.000   0.000   0.000   0.000  -0.000   0.000   0.000   0.000   0.000   0.000  -0.000   0.000   0.000   0.000
 -0.000   0.000  -0.000   0.000  -0.007   0.000  -0.000   0.000  -0.000   0.000  -0.011   0.000  -0.000   0.000  -0.000   0.000
 -0.000   0.000  -0.000   0.000   0.000   0.000  -0.000   0.000  -0.000   0.000   0.000   0.000  -0.000   0.000  -0.000   0.000
 total augmentation occupancy for first ion, spin component:           1
  6.834  -3.471  -0.000   0.000   0.000  -0.000   0.000   0.000   0.000   0.000  -0.000   0.000   0.000
 -3.471   1.996   0.000   0.000   0.000  -0.000  -0.000   0.000   0.000  -0.000   0.000  -0.000   0.000
  0.000   0.000   2.935   0.000   0.000  -0.805   0.000   0.000   0.000   0.000  -0.000  -0.412  -0.000
  0.000  -0.000   0.000   2.935   0.000   0.000  -0.805   0.000  -0.412  -0.000   0.000   0.000  -0.000
  0.000  -0.000   0.000   0.000   2.935   0.000  -0.000  -0.805   0.000  -0.412   0.000   0.000   0.000
 -0.000  -0.000  -0.805   0.000   0.000   0.238   0.000   0.000   0.000  -0.000  -0.000   0.110  -0.000
  0.000  -0.000  -0.000  -0.805   0.000   0.000   0.238  -0.000   0.110  -0.000   0.000   0.000  -0.000
  0.000  -0.000   0.000  -0.000  -0.805   0.000   0.000   0.238   0.000   0.110   0.000  -0.000  -0.000
 -0.000   0.000  -0.000  -0.412   0.000   0.000   0.110  -0.000   0.102   0.000   0.000   0.000   0.000
  0.000  -0.000   0.000  -0.000  -0.412  -0.000   0.000   0.110   0.000   0.102  -0.000   0.000  -0.000
 -0.000   0.000   0.000   0.000  -0.000  -0.000   0.000  -0.000  -0.000  -0.000   0.030   0.000  -0.000
  0.000  -0.000  -0.412   0.000  -0.000   0.110   0.000   0.000   0.000   0.000   0.000   0.102   0.000
  0.000   0.000  -0.000  -0.000  -0.000  -0.000  -0.000  -0.000  -0.000   0.000   0.000   0.000   0.030
 total augmentation occupancy for first ion, spin component:           2
 -0.000  -0.000   0.000  -0.000   0.000  -0.000   0.000   0.000   0.000   0.000   0.000   0.000   0.000
  0.000   0.000   0.000   0.000   0.000  -0.000   0.000   0.000  -0.000   0.000   0.000   0.000  -0.000
 -0.000  -0.000   0.000   0.000   0.000   0.000  -0.000   0.000   0.000   0.000   0.000  -0.000  -0.000
 -0.000   0.000  -0.000   0.000  -0.000   0.000   0.000   0.000  -0.000   0.000   0.000  -0.000  -0.000
  0.000   0.000   0.000  -0.000   0.000   0.000   0.000  -0.000   0.000  -0.000   0.000   0.000   0.000
 -0.000  -0.000   0.000   0.000   0.000   0.000   0.000   0.000  -0.000   0.000  -0.000   0.000   0.000
  0.000  -0.000  -0.000  -0.000   0.000  -0.000   0.000  -0.000  -0.000   0.000  -0.000   0.000  -0.000
 -0.000   0.000   0.000   0.000   0.000  -0.000  -0.000   0.000   0.000   0.000  -0.000   0.000  -0.000
  0.000  -0.000   0.000  -0.000  -0.000  -0.000   0.000   0.000  -0.000   0.000   0.000  -0.000   0.000
  0.000   0.000   0.000  -0.000  -0.000   0.000  -0.000   0.000   0.000   0.000  -0.000   0.000  -0.000
 -0.000   0.000   0.000   0.000   0.000   0.000   0.000  -0.000   0.000  -0.000   0.000   0.000   0.000
 -0.000   0.000   0.000  -0.000  -0.000   0.000   0.000   0.000   0.000   0.000   0.000   0.000  -0.000
  0.000  -0.000  -0.000   0.000   0.000   0.000   0.000  -0.000  -0.000  -0.000   0.000   0.000  -0.000
 total augmentation occupancy for first ion, spin component:           3
  0.000  -0.000   0.000  -0.000   0.000   0.000   0.000  -0.000  -0.000  -0.000  -0.000   0.000  -0.000
  0.000   0.000   0.000  -0.000   0.000   0.000  -0.000   0.000  -0.000  -0.000   0.000   0.000  -0.000
  0.000   0.000   0.000   0.000  -0.000  -0.000   0.000   0.000   0.000  -0.000  -0.000   0.000   0.000
 -0.000   0.000  -0.000  -0.000   0.000   0.000   0.000  -0.000   0.000   0.000   0.000   0.000  -0.000
 -0.000  -0.000  -0.000  -0.000   0.000  -0.000   0.000   0.000  -0.000  -0.000   0.000   0.000  -0.000
 -0.000   0.000   0.000   0.000  -0.000  -0.000  -0.000  -0.000   0.000   0.000   0.000   0.000  -0.000
  0.000  -0.000  -0.000   0.000   0.000   0.000   0.000   0.000  -0.000  -0.000  -0.000   0.000  -0.000
  0.000   0.000  -0.000  -0.000   0.000   0.000  -0.000  -0.000   0.000  -0.000  -0.000   0.000   0.000
  0.000   0.000   0.000   0.000  -0.000   0.000   0.000   0.000  -0.000   0.000   0.000  -0.000   0.000
  0.000   0.000  -0.000   0.000  -0.000   0.000  -0.000   0.000  -0.000   0.000   0.000   0.000   0.000
 -0.000  -0.000  -0.000   0.000   0.000   0.000   0.000  -0.000   0.000  -0.000  -0.000   0.000   0.000
  0.000   0.000   0.000   0.000   0.000   0.000   0.000  -0.000  -0.000   0.000   0.000  -0.000  -0.000
  0.000  -0.000   0.000  -0.000  -0.000  -0.000   0.000   0.000   0.000   0.000   0.000  -0.000   0.000
 total augmentation occupancy for first ion, spin component:           4
 -0.000  -0.000  -0.000   0.000   0.000  -0.000   0.000  -0.000   0.000   0.000   0.000  -0.000   0.000
 -0.000   0.000   0.000   0.000  -0.000   0.000   0.000  -0.000   0.000  -0.000  -0.000   0.000  -0.000
  0.000  -0.000   0.000  -0.000  -0.000   0.000   0.000   0.000  -0.000  -0.000   0.000  -0.000   0.000
  0.000   0.000   0.000   0.000  -0.000   0.000  -0.000   0.000  -0.000   0.000   0.000   0.000  -0.000
  0.000   0.000   0.000   0.000  -0.000  -0.000  -0.000   0.000  -0.000   0.000   0.000   0.000  -0.000
  0.000   0.000   0.000  -0.000  -0.000   0.000  -0.000  -0.000   0.000   0.000  -0.000   0.000  -0.000
  0.000   0.000   0.000   0.000  -0.000   0.000   0.000  -0.000   0.000   0.000   0.000   0.000   0.000
  0.000  -0.000   0.000  -0.000  -0.000   0.000   0.000  -0.000   0.000   0.000   0.000  -0.000   0.000
  0.000   0.000   0.000   0.000  -0.000  -0.000   0.000  -0.000   0.000   0.000   0.000  -0.000   0.000
  0.000   0.000  -0.000   0.000   0.000   0.000   0.000   0.000   0.000  -0.000  -0.000   0.000   0.000
  0.000   0.000   0.000   0.000   0.000  -0.000   0.000   0.000   0.000  -0.000   0.000   0.000   0.000
  0.000  -0.000  -0.000   0.000   0.000  -0.000   0.000  -0.000  -0.000  -0.000  -0.000  -0.000   0.000
  0.000  -0.000   0.000  -0.000   0.000   0.000   0.000   0.000   0.000   0.000   0.000   0.000  -0.000


------------------------ aborting loop because EDIFF is reached ----------------------------------------


    CHARGE:  cpu time    0.0588: real time    0.0588
    FORLOC:  cpu time    0.0009: real time    0.0009
    FORNL :  cpu time    0.0872: real time    0.0872
    STRESS:  cpu time    0.4149: real time    0.4154
    FORCOR:  cpu time    0.0262: real time    0.0262
    FORHAR:  cpu time    0.0030: real time    0.0030
    MIXING:  cpu time    0.3008: real time    0.3008
    OFIELD:  cpu time    0.0001: real time    0.0001

  FORCE on cell =-STRESS in cart. coord.  units (eV):
  Direction    XX          YY          ZZ          XY          YZ          ZX
  --------------------------------------------------------------------------------------
  Alpha Z     6.67625     6.67625     6.67625
  Ewald     -71.28251   -71.28251   -71.28251     0.00000     0.00000     0.00000
  Hartree     8.52815     8.52815     8.52815     0.00000     0.00000     0.00000
  E(xc)     -31.55839   -31.55839   -31.55839    -0.00000    -0.00000    -0.00000
  Local     -33.42709   -33.42709   -33.42709     0.00002     0.00002     0.00002
  n-local    69.86738    70.63608    66.51649     1.76690    -0.61550     0.21015
  augment    -8.54426    -8.54426    -8.54426    -0.00002    -0.00002    -0.00002
  Kinetic    64.09421    63.58999    58.79475     3.80614    -0.92888     0.56953
  Fock        0.00000     0.00000     0.00000     0.00000     0.00000     0.00000
  -------------------------------------------------------------------------------------
  Total       1.55845     1.55845     1.55845    -0.00000     0.00000     0.00000
  in kB      44.91473    44.91473    44.91473    -0.00000     0.00000     0.00000
  external pressure =       44.91 kB  Pullay stress =        0.00 kB


 VOLUME and BASIS-vectors are now :
 -----------------------------------------------------------------------------
  energy-cutoff  :      400.00
  volume of cell :       55.59
      direct lattice vectors                 reciprocal lattice vectors
     0.000000000  3.029200000  3.029200000    -0.165060082  0.165060082  0.165060082
     3.029200000  0.000000000  3.029200000     0.165060082 -0.165060082  0.165060082
     3.029200000  3.029200000  0.000000000     0.165060082  0.165060082 -0.165060082

  length of vectors
     4.283935723  4.283935723  4.283935723     0.285892448  0.285892448  0.285892448


 FORCES acting on ions
    electron-ion (+dipol)            ewald-force                    non-local-force                 convergence-correction
 -----------------------------------------------------------------------------------------------
   0.460E-06 0.460E-06 0.460E-06   -.437E-14 -.349E-14 -.380E-14   -.416E-16 -.347E-16 -.451E-16   0.352E-08 0.352E-08 0.352E-08
   -.339E-06 -.339E-06 -.339E-06   0.437E-14 0.340E-14 0.349E-14   -.555E-16 -.486E-16 -.278E-16   0.513E-08 0.513E-08 0.513E-08
 -----------------------------------------------------------------------------------------------
   0.121E-06 0.121E-06 0.121E-06   -.623E-17 -.883E-16 -.308E-15   -.971E-16 -.833E-16 -.729E-16   0.865E-08 0.865E-08 0.865E-08
 
 
 POSITION                                       TOTAL-FORCE (eV/Angst)
 -----------------------------------------------------------------------------------
      0.00000      0.00000      0.00000        -0.000000      0.000000     -0.000000
      4.54380      4.54380      4.54380         0.000000     -0.000000      0.000000
 -----------------------------------------------------------------------------------
    total drift:                                0.000000      0.000000      0.000000


--------------------------------------------------------------------------------------------------------



  FREE ENERGIE OF THE ION-ELECTRON SYSTEM (eV)
  ---------------------------------------------------
  free  energy   TOTEN  =        -7.66552700 eV

  energy  without entropy=       -7.66536252  energy(sigma->0) =       -7.66544476
 


--------------------------------------------------------------------------------------------------------


    POTLOK:  cpu time    3.1308: real time    3.1315


--------------------------------------------------------------------------------------------------------


 writing wavefunctions
     LOOP+:  cpu time   41.2311: real time   41.7868
    4ORBIT:  cpu time    0.0000: real time    0.0000

 Spin-Orbit-Coupling matrix elements

 Ion:    1  E_soc:     -0.0346669
 l=   1
     0.0000000    -0.0056048    -0.0056048
    -0.0056048     0.0000000    -0.0056048
    -0.0056048    -0.0056048     0.0000000
 l=   2
     0.0000000    -0.0000608     0.0000000    -0.0000608    -0.0001122
    -0.0000608     0.0000000    -0.0000842    -0.0000608    -0.0000281
     0.0000000    -0.0000842     0.0000000    -0.0000842     0.0000000
    -0.0000608    -0.0000608    -0.0000842     0.0000000    -0.0000281
    -0.0001122    -0.0000281     0.0000000    -0.0000281     0.0000000
 l=   3
     0.0000000     0.0000000     0.0000000     0.0000000     0.0000000     0.0000000     0.0000000
     0.0000000     0.0000000     0.0000000     0.0000000     0.0000000     0.0000000     0.0000000
     0.0000000     0.0000000     0.0000000     0.0000000     0.0000000     0.0000000     0.0000000
     0.0000000     0.0000000     0.0000000     0.0000000     0.0000000     0.0000000     0.0000000
     0.0000000     0.0000000     0.0000000     0.0000000     0.0000000     0.0000000     0.0000000
     0.0000000     0.0000000     0.0000000     0.0000000     0.0000000     0.0000000     0.0000000
     0.0000000     0.0000000     0.0000000     0.0000000     0.0000000     0.0000000     0.0000000

 Ion:    2  E_soc:     -0.0266173
 l=   1
     0.0000000    -0.0044374    -0.0044374
    -0.0044374     0.0000000    -0.0044374
    -0.0044374    -0.0044374     0.0000000
 l=   2
     0.0000000     0.0000005     0.0000000     0.0000005     0.0000007
     0.0000005     0.0000000     0.0000005     0.0000005     0.0000002
     0.0000000     0.0000005     0.0000000     0.0000005     0.0000000
     0.0000005     0.0000005     0.0000005     0.0000000     0.0000002
     0.0000007     0.0000002     0.0000000     0.0000002     0.0000000
 l=   3
     0.0000000     0.0000000     0.0000000     0.0000000     0.0000000     0.0000000     0.0000000
     0.0000000     0.0000000     0.0000000     0.0000000     0.0000000     0.0000000     0.0000000
     0.0000000     0.0000000     0.0000000     0.0000000     0.0000000     0.0000000     0.0000000
     0.0000000     0.0000000     0.0000000     0.0000000     0.0000000     0.0000000     0.0000000
     0.0000000     0.0000000     0.0000000     0.0000000     0.0000000     0.0000000     0.0000000
     0.0000000     0.0000000     0.0000000     0.0000000     0.0000000     0.0000000     0.0000000
     0.0000000     0.0000000     0.0000000     0.0000000     0.0000000     0.0000000     0.0000000

 total amount of memory used by VASP MPI-rank0    38738. kBytes
=======================================================================

   base      :      30000. kBytes
   nonl-proj :       3248. kBytes
   fftplans  :        830. kBytes
   grid      :       3096. kBytes
   one-center:         32. kBytes
   wavefun   :       1532. kBytes
 
  
  
 General timing and accounting informations for this job:
 ========================================================
  
                  Total CPU time used (sec):       44.499
                            User time (sec):       41.830
                          System time (sec):        2.669
                         Elapsed time (sec):       45.451
  
                   Maximum memory used (kb):       64052.
                   Average memory used (kb):           0.
  
                          Minor page faults:        22504
                          Major page faults:            0
                 Voluntary context switches:         2290
