 vasp.5.4.4.18Apr17-6-g9f103f2a35 (build Nov 08 2017 12:56:59) complex          
  
 executed on             LinuxIFC date 2020.06.22  19:30:35
 running on   56 total cores
 distrk:  each k-point on   56 cores,    1 groups
 distr:  one band on NCORES_PER_BAND=   1 cores,   56 groups


--------------------------------------------------------------------------------------------------------


 INCAR:
 POTCAR:    PAW_PBE In 08Apr2002                  
 POTCAR:    PAW_PBE As 22Sep2009                  

 ----------------------------------------------------------------------------- 
|                                                                             |
|           W    W    AA    RRRRR   N    N  II  N    N   GGGG   !!!           |
|           W    W   A  A   R    R  NN   N  II  NN   N  G    G  !!!           |
|           W    W  A    A  R    R  N N  N  II  N N  N  G       !!!           |
|           W WW W  AAAAAA  RRRRR   N  N N  II  N  N N  G  GGG   !            |
|           WW  WW  A    A  R   R   N   NN  II  N   NN  G    G                |
|           W    W  A    A  R    R  N    N  II  N    N   GGGG   !!!           |
|                                                                             |
|      For optimal performance we recommend to set                            |
|        NCORE= 4 - approx SQRT( number of cores)                             |
|      NCORE specifies how many cores store one orbital (NPAR=cpu/NCORE).     |
|      This setting can  greatly improve the performance of VASP for DFT.     |
|      The default,   NCORE=1            might be grossly inefficient         |
|      on modern multi-core architectures or massively parallel machines.     |
|      Do your own testing !!!!                                               |
|      Unfortunately you need to use the default for GW and RPA calculations. |
|      (for HF NCORE is supported but not extensively tested yet)             |
|                                                                             |
 ----------------------------------------------------------------------------- 

 POTCAR:    PAW_PBE In 08Apr2002                  
   VRHFIN =In: s2p1                                                             
   LEXCH  = PE                                                                  
   EATOM  =    53.7908 eV,    3.9535 Ry                                         
                                                                                
   TITEL  = PAW_PBE In 08Apr2002                                                
   LULTRA =        F    use ultrasoft PP ?                                      
   IUNSCR =        1    unscreen: 0-lin 1-nonlin 2-no                           
   RPACOR =    2.400    partial core radius                                     
   POMASS =  114.820; ZVAL   =    3.000    mass and valenz                      
   RCORE  =    3.100    outmost cutoff radius                                   
   RWIGS  =    3.170; RWIGS  =    1.677    wigner-seitz radius (au A)           
   ENMAX  =   95.934; ENMIN  =   71.951 eV                                      
   ICORE  =        3    local potential                                         
   LCOR   =        T    correct aug charges                                     
   LPAW   =        T    paw PP                                                  
   EAUG   =  237.125                                                            
   DEXC   =    0.000                                                            
   RMAX   =    3.168    core radius for proj-oper                               
   RAUG   =    1.300    factor for augmentation sphere                          
   RDEP   =    3.187    radius for radial grids                                 
   RDEPT  =    2.711    core radius for aug-charge                              
                                                                                
   Atomic configuration                                                         
   13 entries                                                                   
     n  l   j            E        occ.                                          
     1  0  0.50    -27747.9169   2.0000                                         
     2  0  0.50     -4154.4438   2.0000                                         
     2  1  1.50     -3728.4305   6.0000                                         
     3  0  0.50      -788.3680   2.0000                                         
     3  1  1.50      -648.9215   6.0000                                         
     3  2  2.50      -432.5893  10.0000                                         
     4  0  0.50      -119.6363   2.0000                                         
     4  1  1.50       -78.1086   6.0000                                         
     4  2  2.50       -18.6227  10.0000                                         
     5  0  0.50        -8.2107   2.0000                                         
     5  1  0.50        -2.5185   1.0000                                         
     5  2  2.50        -1.3606   0.0000                                         
     4  3  2.50        -2.7212   0.0000                                         
   Description                                                                  
     l       E           TYP  RCUT    TYP  RCUT                                 
     0     -8.2107306     23  3.100                                             
     0     -6.1485975     23  3.100                                             
     1     -2.5184867     23  3.100                                             
     1      3.2427302     23  3.100                                             
     2     -1.3605826     23  3.100                                             
     3     -1.3605826     23  3.100                                             
  local pseudopotential read in
  partial core-charges read in
  partial kinetic energy density read in
  atomic valenz-charges read in
  non local Contribution for L=           0  read in
    real space projection operators read in
  non local Contribution for L=           0  read in
    real space projection operators read in
  non local Contribution for L=           1  read in
    real space projection operators read in
  non local Contribution for L=           1  read in
    real space projection operators read in
  non local Contribution for L=           2  read in
    real space projection operators read in
    PAW grid and wavefunctions read in
 
   number of l-projection  operators is LMAX  =           5
   number of lm-projection operators is LMMAX =          13
 
 POTCAR:    PAW_PBE As 22Sep2009                  
   VRHFIN =As: s2p3                                                             
   LEXCH  = PE                                                                  
   EATOM  =   170.1867 eV,   12.5084 Ry                                         
                                                                                
   TITEL  = PAW_PBE As 22Sep2009                                                
   LULTRA =        F    use ultrasoft PP ?                                      
   IUNSCR =        1    unscreen: 0-lin 1-nonlin 2-no                           
   RPACOR =    1.900    partial core radius                                     
   POMASS =   74.922; ZVAL   =    5.000    mass and valenz                      
   RCORE  =    2.100    outmost cutoff radius                                   
   RWIGS  =    2.300; RWIGS  =    1.217    wigner-seitz radius (au A)           
   ENMAX  =  208.702; ENMIN  =  156.526 eV                                      
   ICORE  =        3    local potential                                         
   LCOR   =        T    correct aug charges                                     
   LPAW   =        T    paw PP                                                  
   EAUG   =  462.758                                                            
   DEXC   =    0.000                                                            
   RMAX   =    2.144    core radius for proj-oper                               
   RAUG   =    1.300    factor for augmentation sphere                          
   RDEP   =    2.140    radius for radial grids                                 
   RDEPT  =    1.956    core radius for aug-charge                              
                                                                                
   Atomic configuration                                                         
   10 entries                                                                   
     n  l   j            E        occ.                                          
     1  0  0.50    -11718.0418   2.0000                                         
     2  0  0.50     -1486.5454   2.0000                                         
     2  1  1.50     -1303.3889   6.0000                                         
     3  0  0.50      -190.2849   2.0000                                         
     3  1  1.50      -133.6555   6.0000                                         
     3  2  2.50       -40.6443  10.0000                                         
     4  0  0.50       -14.4936   2.0000                                         
     4  1  0.50        -5.1947   3.0000                                         
     4  2  1.50        -5.4423   0.0000                                         
     4  3  2.50        -5.4423   0.0000                                         
   Description                                                                  
     l       E           TYP  RCUT    TYP  RCUT                                 
     0    -14.4935570     23  2.100                                             
     0    -11.9212055     23  2.100                                             
     1     -5.1947127     23  2.100                                             
     1     27.2116520     23  2.100                                             
     2     -5.4423304     23  2.100                                             
     3     -1.3605826      7  2.100                                             
  local pseudopotential read in
  partial core-charges read in
  partial kinetic energy density read in
  atomic valenz-charges read in
  non local Contribution for L=           0  read in
    real space projection operators read in
  non local Contribution for L=           0  read in
    real space projection operators read in
  non local Contribution for L=           1  read in
    real space projection operators read in
  non local Contribution for L=           1  read in
    real space projection operators read in
  non local Contribution for L=           2  read in
    real space projection operators read in
    PAW grid and wavefunctions read in
 
   number of l-projection  operators is LMAX  =           5
   number of lm-projection operators is LMMAX =          13
 
  PAW_PBE In 08Apr2002                  :
 energy of atom  1       EATOM=  -53.7908
 kinetic energy error for atom=    0.0001 (will be added to EATOM!!)
  PAW_PBE As 22Sep2009                  :
 energy of atom  2       EATOM= -170.1867
 kinetic energy error for atom=    0.0022 (will be added to EATOM!!)
 
 
 POSCAR: In As                                   
  positions in direct lattice
  No initial velocities read in
 exchange correlation table for  LEXCH =        8
   RHO(1)=    0.500       N(1)  =     2000
   RHO(2)=  100.500       N(2)  =     4000
 


--------------------------------------------------------------------------------------------------------


 ion  position               nearest neighbor table
   1  0.000  0.000  0.000-   2 2.62   2 2.62   2 2.62   2 2.62
   2  0.250  0.250  0.250-   1 2.62   1 2.62   1 2.62   1 2.62
 
  LATTYP: Found a face centered cubic cell.
 ALAT       =     6.0584000000
  
  Lattice vectors:
  
 A1 = (   0.0000000000,   3.0292000000,   3.0292000000)
 A2 = (   3.0292000000,   0.0000000000,   3.0292000000)
 A3 = (   3.0292000000,   3.0292000000,   0.0000000000)


Analysis of symmetry for initial positions (statically):
=====================================================================
 Subroutine PRICEL returns:
 Original cell was already a primitive cell.
 

 Routine SETGRP: Setting up the symmetry group for a 
 face centered cubic supercell.


 Subroutine GETGRP returns: Found 24 space group operations
 (whereof 24 operations were pure point group operations)
 out of a pool of 48 trial point group operations.


The static configuration has the point symmetry T_d .


Analysis of symmetry for dynamics (positions and initial velocities):
=====================================================================
 Subroutine PRICEL returns:
 Original cell was already a primitive cell.
 

 Routine SETGRP: Setting up the symmetry group for a 
 face centered cubic supercell.


 Subroutine GETGRP returns: Found 24 space group operations
 (whereof 24 operations were pure point group operations)
 out of a pool of 48 trial point group operations.


The dynamic configuration has the point symmetry T_d .


Analysis of structural, dynamic, and magnetic symmetry:
=====================================================================
 Subroutine PRICEL returns:
 Original cell was already a primitive cell.
 

 Routine SETGRP: Setting up the symmetry group for a 
 face centered cubic supercell.


 Subroutine GETGRP returns: Found 24 space group operations
 (whereof 24 operations were pure point group operations)
 out of a pool of 48 trial point group operations.


The (compounded) configuration has the point symmetry T_d .


 Subroutine INISYM returns: Found 24 space group operations
 (whereof 24 operations are pure point group operations),
 and found     1 'primitive' translations

 
 
 KPOINTS: KPOINTS created by Atomic Simulation Env

Automatic generation of k-mesh.
Space group operators:
 irot       det(A)        alpha          n_x          n_y          n_z        tau_x        tau_y        tau_z
    1     1.000000     0.000000     1.000000     0.000000     0.000000     0.000000     0.000000     0.000000
    2     1.000000   120.000000    -0.577350    -0.577350    -0.577350     0.000000     0.000000     0.000000
    3     1.000000   120.000000     0.577350     0.577350     0.577350     0.000000     0.000000     0.000000
    4    -1.000000    90.000000     0.000000     0.000000    -1.000000     0.000000     0.000000     0.000000
    5    -1.000000   180.000000     0.000000     0.707107     0.707107     0.000000     0.000000     0.000000
    6    -1.000000    90.000000     0.000000     1.000000     0.000000     0.000000     0.000000     0.000000
    7     1.000000   180.000000     0.000000     0.000000     1.000000     0.000000     0.000000     0.000000
    8     1.000000   120.000000    -0.577350     0.577350     0.577350     0.000000     0.000000     0.000000
    9     1.000000   120.000000    -0.577350     0.577350    -0.577350     0.000000     0.000000     0.000000
   10    -1.000000    90.000000     0.000000     0.000000     1.000000     0.000000     0.000000     0.000000
   11    -1.000000    90.000000    -1.000000     0.000000     0.000000     0.000000     0.000000     0.000000
   12    -1.000000   180.000000     0.707107     0.000000     0.707107     0.000000     0.000000     0.000000
   13     1.000000   120.000000     0.577350    -0.577350     0.577350     0.000000     0.000000     0.000000
   14     1.000000   120.000000    -0.577350    -0.577350     0.577350     0.000000     0.000000     0.000000
   15     1.000000   180.000000     1.000000     0.000000     0.000000     0.000000     0.000000     0.000000
   16    -1.000000    90.000000     0.000000    -1.000000     0.000000     0.000000     0.000000     0.000000
   17    -1.000000   180.000000     0.707107     0.707107     0.000000     0.000000     0.000000     0.000000
   18    -1.000000    90.000000     1.000000     0.000000     0.000000     0.000000     0.000000     0.000000
   19     1.000000   120.000000     0.577350    -0.577350    -0.577350     0.000000     0.000000     0.000000
   20     1.000000   180.000000     0.000000     1.000000     0.000000     0.000000     0.000000     0.000000
   21     1.000000   120.000000     0.577350     0.577350    -0.577350     0.000000     0.000000     0.000000
   22    -1.000000   180.000000     0.000000    -0.707107     0.707107     0.000000     0.000000     0.000000
   23    -1.000000   180.000000     0.707107    -0.707107     0.000000     0.000000     0.000000     0.000000
   24    -1.000000   180.000000     0.707107     0.000000    -0.707107     0.000000     0.000000     0.000000
 
 Subroutine IBZKPT returns following result:
 ===========================================
 
 Found     22 irreducible k-points:
 
 Following reciprocal coordinates:
            Coordinates               Weight
  0.000000  0.000000  0.000000      1.000000
  0.166667  0.000000  0.000000      4.000000
  0.333333  0.000000  0.000000      4.000000
  0.500000  0.000000  0.000000      4.000000
 -0.333333  0.000000  0.000000      4.000000
 -0.166667  0.000000  0.000000      4.000000
  0.166667  0.166667  0.000000      6.000000
  0.333333  0.166667  0.000000     12.000000
  0.500000  0.166667  0.000000     12.000000
 -0.333333  0.166667  0.000000     12.000000
 -0.166667  0.166667  0.000000     12.000000
  0.333333  0.333333  0.000000      6.000000
  0.500000  0.333333  0.000000     12.000000
 -0.333333  0.333333  0.000000     12.000000
 -0.166667  0.333333  0.000000     12.000000
  0.500000  0.500000  0.000000      3.000000
 -0.333333  0.500000  0.000000     12.000000
 -0.166667  0.500000  0.000000     12.000000
 -0.166667 -0.333333  0.000000     12.000000
  0.500000  0.333333  0.166667     24.000000
 -0.333333  0.333333  0.166667     24.000000
 -0.333333  0.500000  0.166667     12.000000
 
 Following cartesian coordinates:
            Coordinates               Weight
  0.000000  0.000000  0.000000      1.000000
 -0.027510  0.027510  0.027510      4.000000
 -0.055020  0.055020  0.055020      4.000000
 -0.082530  0.082530  0.082530      4.000000
  0.055020 -0.055020 -0.055020      4.000000
  0.027510 -0.027510 -0.027510      4.000000
  0.000000  0.000000  0.055020      6.000000
 -0.027510  0.027510  0.082530     12.000000
 -0.055020  0.055020  0.110040     12.000000
  0.082530 -0.082530 -0.027510     12.000000
  0.055020 -0.055020  0.000000     12.000000
  0.000000  0.000000  0.110040      6.000000
 -0.027510  0.027510  0.137550     12.000000
  0.110040 -0.110040  0.000000     12.000000
  0.082530 -0.082530  0.027510     12.000000
  0.000000  0.000000  0.165060      3.000000
  0.137550 -0.137550  0.027510     12.000000
  0.110040 -0.110040  0.055020     12.000000
 -0.027510  0.027510 -0.082530     12.000000
  0.000000  0.055020  0.110040     24.000000
  0.137550 -0.082530 -0.027510     24.000000
  0.165060 -0.110040 -0.000000     12.000000
 


--------------------------------------------------------------------------------------------------------




 Dimension of arrays:
   k-points           NKPTS =     22   k-points in BZ     NKDIM =     22   number of bands    NBANDS=     56
   number of dos      NEDOS =    301   number of ions     NIONS =      2
   non local maximal  LDIM  =      5   non local SUM 2l+1 LMDIM =     13
   total plane-waves  NPLWV =   5832
   max r-space proj   IRMAX =      1   max aug-charges    IRDMAX=  12033
   dimension x,y,z NGX =    18 NGY =   18 NGZ =   18
   dimension x,y,z NGXF=    36 NGYF=   36 NGZF=   36
   support grid    NGXF=    36 NGYF=   36 NGZF=   36
   ions per type =               1   1
   NGX,Y,Z   is equivalent  to a cutoff of   6.99,  6.99,  6.99 a.u.
   NGXF,Y,Z  is equivalent  to a cutoff of  13.97, 13.97, 13.97 a.u.

 SYSTEM =  unknown system                          
 POSCAR =  In As                                   

 Startparameter for this run:
   NWRITE =      2    write-flag & timer
   PREC   = n         normal or accurate (medium, high low for compatibility)
   ISTART =      0    job   : 0-new  1-cont  2-samecut
   ICHARG =      2    charge: 1-file 2-atom 10-const
   ISPIN  =      1    spin polarized calculation?
   LNONCOLLINEAR =      T non collinear calculations
   LSORBIT =      T    spin-orbit coupling
   INIWAV =      1    electr: 0-lowe 1-rand  2-diag
   LASPH  =      F    aspherical Exc in radial PAW
   METAGGA=      F    non-selfconsistent MetaGGA calc.

 Electronic Relaxation 1
   ENCUT  =  300.0 eV  22.05 Ry    4.70 a.u.   6.05  6.05  6.05*2*pi/ulx,y,z
   ENINI  =  300.0     initial cutoff
   ENAUG  =  462.8 eV  augmentation charge cutoff
   NELM   =     60;   NELMIN=  2; NELMDL= -5     # of ELM steps 
   EDIFF  = 0.1E-03   stopping-criterion for ELM
   LREAL  =      F    real-space projection
   NLSPLINE    = F    spline interpolate recip. space projectors
   LCOMPAT=      F    compatible to vasp.4.4
   GGA_COMPAT  = T    GGA compatible to vasp.4.4-vasp.4.6
   LMAXPAW     = -100 max onsite density
   LMAXMIX     =    2 max onsite mixed and CHGCAR
   VOSKOWN=      0    Vosko Wilk Nusair interpolation
   ROPT   =    0.00000   0.00000
 Ionic relaxation
   EDIFFG = 0.1E-02   stopping-criterion for IOM
   NSW    =      0    number of steps for IOM
   NBLOCK =      1;   KBLOCK =      1    inner block; outer block 
   IBRION =     -1    ionic relax: 0-MD 1-quasi-New 2-CG
   NFREE  =      0    steps in history (QN), initial steepest desc. (CG)
   ISIF   =      2    stress and relaxation
   IWAVPR =     10    prediction:  0-non 1-charg 2-wave 3-comb
   ISYM   =      2    0-nonsym 1-usesym 2-fastsym
   LCORR  =      T    Harris-Foulkes like correction to forces

   POTIM  = 0.5000    time-step for ionic-motion
   TEIN   =    0.0    initial temperature
   TEBEG  =    0.0;   TEEND  =   0.0 temperature during run
   SMASS  =  -3.00    Nose mass-parameter (am)
   estimated Nose-frequenzy (Omega)   =  0.10E-29 period in steps =****** mass=  -0.419E-27a.u.
   SCALEE = 1.0000    scale energy and forces
   NPACO  =    256;   APACO  = 16.0  distance and # of slots for P.C.
   PSTRESS=    0.0 pullay stress

  Mass of Ions in am
   POMASS = 114.82 74.92
  Ionic Valenz
   ZVAL   =   3.00  5.00
  Atomic Wigner-Seitz radii
   RWIGS  =  -1.00 -1.00
  virtual crystal weights 
   VCA    =   1.00  1.00
   NELECT =       8.0000    total number of electrons
   NUPDOWN=      -1.0000    fix difference up-down

 DOS related values:
   EMIN   =  10.00;   EMAX   =-10.00  energy-range for DOS
   EFERMI =   0.00
   ISMEAR =     1;   SIGMA  =   0.05  broadening in eV -4-tet -1-fermi 0-gaus

 Electronic relaxation 2 (details)
   IALGO  =     53    algorithm
   LDIAG  =      T    sub-space diagonalisation (order eigenvalues)
   LSUBROT=      F    optimize rotation matrix (better conditioning)
   TURBO    =      0    0=normal 1=particle mesh
   IRESTART =      0    0=no restart 2=restart with 2 vectors
   NREBOOT  =      0    no. of reboots
   NMIN     =      0    reboot dimension
   EREF     =   0.00    reference energy to select bands
   IMIX   =      4    mixing-type and parameters
     AMIX     =   0.40;   BMIX     =  1.00
     AMIX_MAG =   1.60;   BMIX_MAG =  1.00
     AMIN     =   0.10
     WC   =   100.;   INIMIX=   1;  MIXPRE=   1;  MAXMIX= -45

 Intra band minimization:
   WEIMIN = 0.0000     energy-eigenvalue tresh-hold
   EBREAK =  0.45E-06  absolut break condition
   DEPER  =   0.30     relativ break condition  

   TIME   =   0.40     timestep for ELM

  volume/ion in A,a.u.               =      27.80       187.58
  Fermi-wavevector in a.u.,A,eV,Ry     =   0.857894  1.621184 10.013641  0.735982
  Thomas-Fermi vector in A             =   1.975016
 
 Write flags
   LWAVE        =      T    write WAVECAR
   LDOWNSAMPLE  =      F    k-point downsampling of WAVECAR
   LCHARG       =      T    write CHGCAR
   LVTOT        =      F    write LOCPOT, total local potential
   LVHAR        =      F    write LOCPOT, Hartree potential only
   LELF         =      F    write electronic localiz. function (ELF)
   LORBIT       =      0    0 simple, 1 ext, 2 COOP (PROOUT), +10 PAW based schemes


 Dipole corrections
   LMONO  =      F    monopole corrections only (constant potential shift)
   LDIPOL =      F    correct potential (dipole corrections)
   IDIPOL =      0    1-x, 2-y, 3-z, 4-all directions 
   EPSILON=  1.0000000 bulk dielectric constant

 Exchange correlation treatment:
   GGA     =    PE    GGA type
   LEXCH   =     8    internal setting for exchange type
   VOSKOWN=      0    Vosko Wilk Nusair interpolation
   LHFCALC =     F    Hartree Fock is set to
   LHFONE  =     F    Hartree Fock one center treatment
   AEXX    =    0.0000 exact exchange contribution

 Linear response parameters
   LEPSILON=     F    determine dielectric tensor
   LRPA    =     F    only Hartree local field effects (RPA)
   LNABLA  =     F    use nabla operator in PAW spheres
   LVEL    =     F    velocity operator in full k-point grid
   LINTERFAST=   F  fast interpolation
   KINTER  =     0    interpolate to denser k-point grid
   CSHIFT  =0.1000    complex shift for real part using Kramers Kronig
   OMEGAMAX=  -1.0    maximum frequency
   DEG_THRESHOLD= 0.2000000E-02 threshold for treating states as degnerate
   RTIME   =   -0.100 relaxation time in fs
  (WPLASMAI=    0.000 imaginary part of plasma frequency in eV, 0.658/RTIME)
   DFIELD  = 0.0000000 0.0000000 0.0000000 field for delta impulse in time
 
 Orbital magnetization related:
   ORBITALMAG=     F  switch on orbital magnetization
   LCHIMAG   =     F  perturbation theory with respect to B field
   DQ        =  0.001000  dq finite difference perturbation B field
   LLRAUG    =     F  two centre corrections for induced B field



--------------------------------------------------------------------------------------------------------


 Static calculation
 charge density and potential will be updated during run
 non collinear spin polarized calculation
 Conjugate gradient for all bands (Freysoldt, et al. PRB 79, 241103 (2009))
 perform sub-space diagonalisation
    before iterative eigenvector-optimisation
 modified Broyden-mixing scheme, WC =      100.0
 initial mixing is a Kerker type mixing with AMIX =  0.4000 and BMIX =      1.0000
 Hartree-type preconditioning will be used
 using additional bands           52
 reciprocal scheme for non local part
 use partial core corrections
 no Harris-corrections to forces 
 use gradient corrections 
 use of overlap-Matrix (Vanderbilt PP)
 Methfessel and Paxton  Order N= 1 SIGMA  =   0.05


--------------------------------------------------------------------------------------------------------


  energy-cutoff  :      300.00
  volume of cell :       55.59
      direct lattice vectors                 reciprocal lattice vectors
     0.000000000  3.029200000  3.029200000    -0.165060082  0.165060082  0.165060082
     3.029200000  0.000000000  3.029200000     0.165060082 -0.165060082  0.165060082
     3.029200000  3.029200000  0.000000000     0.165060082  0.165060082 -0.165060082

  length of vectors
     4.283935723  4.283935723  4.283935723     0.285892448  0.285892448  0.285892448


 
 k-points in units of 2pi/SCALE and weight: KPOINTS created by Atomic Simulation Env
   0.00000000  0.00000000  0.00000000       0.005
  -0.02751001  0.02751001  0.02751001       0.019
  -0.05502003  0.05502003  0.05502003       0.019
  -0.08253004  0.08253004  0.08253004       0.019
   0.05502003 -0.05502003 -0.05502003       0.019
   0.02751001 -0.02751001 -0.02751001       0.019
   0.00000000  0.00000000  0.05502003       0.028
  -0.02751001  0.02751001  0.08253004       0.056
  -0.05502003  0.05502003  0.11004005       0.056
   0.08253004 -0.08253004 -0.02751001       0.056
   0.05502003 -0.05502003  0.00000000       0.056
   0.00000000  0.00000000  0.11004005       0.028
  -0.02751001  0.02751001  0.13755007       0.056
   0.11004005 -0.11004005  0.00000000       0.056
   0.08253004 -0.08253004  0.02751001       0.056
   0.00000000  0.00000000  0.16506008       0.014
   0.13755007 -0.13755007  0.02751001       0.056
   0.11004005 -0.11004005  0.05502003       0.056
  -0.02751001  0.02751001 -0.08253004       0.056
   0.00000000  0.05502003  0.11004005       0.111
   0.13755007 -0.08253004 -0.02751001       0.111
   0.16506008 -0.11004005 -0.00000000       0.056
 
 k-points in reciprocal lattice and weights: KPOINTS created by Atomic Simulation Env
   0.00000000  0.00000000  0.00000000       0.005
   0.16666667  0.00000000  0.00000000       0.019
   0.33333333  0.00000000  0.00000000       0.019
   0.50000000  0.00000000  0.00000000       0.019
  -0.33333333  0.00000000  0.00000000       0.019
  -0.16666667  0.00000000  0.00000000       0.019
   0.16666667  0.16666667  0.00000000       0.028
   0.33333333  0.16666667  0.00000000       0.056
   0.50000000  0.16666667  0.00000000       0.056
  -0.33333333  0.16666667  0.00000000       0.056
  -0.16666667  0.16666667  0.00000000       0.056
   0.33333333  0.33333333  0.00000000       0.028
   0.50000000  0.33333333  0.00000000       0.056
  -0.33333333  0.33333333  0.00000000       0.056
  -0.16666667  0.33333333  0.00000000       0.056
   0.50000000  0.50000000  0.00000000       0.014
  -0.33333333  0.50000000  0.00000000       0.056
  -0.16666667  0.50000000  0.00000000       0.056
  -0.16666667 -0.33333333  0.00000000       0.056
   0.50000000  0.33333333  0.16666667       0.111
  -0.33333333  0.33333333  0.16666667       0.111
  -0.33333333  0.50000000  0.16666667       0.056
 
 position of ions in fractional coordinates (direct lattice) 
   0.00000000  0.00000000  0.00000000
   0.25000000  0.25000000  0.25000000
 
 position of ions in cartesian coordinates  (Angst):
   0.00000000  0.00000000  0.00000000
   1.51460000  1.51460000  1.51460000
 
 Euler angles ALPHA=     0.0000000  BETA=     0.0000000

 transformation matrix from SAXIS to cartesian coordinates
 ---------------------------------------------------------
     1.0000000 m_x     0.0000000 m_y     0.0000000 m_z
     0.0000000 m_x     1.0000000 m_y     0.0000000 m_z
     0.0000000 m_x     0.0000000 m_y     1.0000000 m_z

 transformation matrix from cartesian coordinates to SAXIS
 ---------------------------------------------------------
     1.0000000 m_x     0.0000000 m_y     0.0000000 m_z
     0.0000000 m_x     1.0000000 m_y     0.0000000 m_z
     0.0000000 m_x     0.0000000 m_y     1.0000000 m_z




--------------------------------------------------------------------------------------------------------


 k-point  1 :   0.0000 0.0000 0.0000  plane waves:    1290
 k-point  2 :   0.1667 0.0000 0.0000  plane waves:    1298
 k-point  3 :   0.3333 0.0000 0.0000  plane waves:    1292
 k-point  4 :   0.5000 0.0000 0.0000  plane waves:    1304
 k-point  5 :  -0.3333 0.0000 0.0000  plane waves:    1292
 k-point  6 :  -0.1667 0.0000 0.0000  plane waves:    1298
 k-point  7 :   0.1667 0.1667 0.0000  plane waves:    1306
 k-point  8 :   0.3333 0.1667 0.0000  plane waves:    1300
 k-point  9 :   0.5000 0.1667 0.0000  plane waves:    1324
 k-point 10 :  -0.3333 0.1667 0.0000  plane waves:    1318
 k-point 11 :  -0.1667 0.1667 0.0000  plane waves:    1288
 k-point 12 :   0.3333 0.3333 0.0000  plane waves:    1288
 k-point 13 :   0.5000 0.3333 0.0000  plane waves:    1320
 k-point 14 :  -0.3333 0.3333 0.0000  plane waves:    1316
 k-point 15 :  -0.1667 0.3333 0.0000  plane waves:    1318
 k-point 16 :   0.5000 0.5000 0.0000  plane waves:    1304
 k-point 17 :  -0.3333 0.5000 0.0000  plane waves:    1320
 k-point 18 :  -0.1667 0.5000 0.0000  plane waves:    1324
 k-point 19 :  -0.1667-0.3333 0.0000  plane waves:    1300
 k-point 20 :   0.5000 0.3333 0.1667  plane waves:    1312
 k-point 21 :  -0.3333 0.3333 0.1667  plane waves:    1320
 k-point 22 :  -0.3333 0.5000 0.1667  plane waves:    1324

 maximum and minimum number of plane-waves per node :      1324     1288

 maximum number of plane-waves:      1324
 maximum index in each direction: 
   IXMAX=    6   IYMAX=    6   IZMAX=    6
   IXMIN=   -6   IYMIN=   -6   IZMIN=   -6


 serial   3D FFT for wavefunctions
 parallel 3D FFT for charge:
    minimum data exchange during FFTs selected (reduces bandwidth)


 total amount of memory used by VASP MPI-rank0    35891. kBytes
=======================================================================

   base      :      30000. kBytes
   nonl-proj :       3096. kBytes
   fftplans  :        138. kBytes
   grid      :       1057. kBytes
   one-center:         64. kBytes
   wavefun   :       1536. kBytes
 
     INWAV:  cpu time    0.0000: real time    0.0002
 Broyden mixing: mesh for mixing (old mesh)
   NGX = 13   NGY = 13   NGZ = 13
  (NGX  = 36   NGY  = 36   NGZ  = 36)
  gives a total of   2197 points

 initial charge density was supplied:
 charge density of overlapping atoms calculated
 number of electron       8.0000000 magnetization       0.0000000      0.0000000      0.0000000
 keeping initial charge density in first step


--------------------------------------------------------------------------------------------------------


 Maximum index for augmentation-charges          559 (set IRDMAX)


--------------------------------------------------------------------------------------------------------


 First call to EWALD:  gamma=   0.464
 Maximum number of real-space cells 3x 3x 3
 Maximum number of reciprocal cells 3x 3x 3

    FEWALD:  cpu time    0.0017: real time    0.0018


--------------------------------------- Iteration      1(   1)  ---------------------------------------


    POTLOK:  cpu time    0.0088: real time    0.0089
    SETDIJ:  cpu time    0.0102: real time    0.0102
    TRIAL :  cpu time    1.5119: real time    1.5129
    CORREC:  cpu time    0.0005: real time    0.0005
    --------------------------------------------
      LOOP:  cpu time    1.5332: real time    1.5363

 eigenvalue-minimisations  :  3696
 total energy-change (2. order) : 0.5775455E+01  (-0.2993117E+03)
 number of electron       8.0000000 magnetization       0.0000000      0.0000000      0.0000000
 augmentation part        8.0000000 magnetization       0.0000000      0.0000000      0.0000000

 Free energy of the ion-electron system (eV)
  ---------------------------------------------------
  alpha Z        PSCENC =         6.67624893
  Ewald energy   TEWEN  =      -213.84743004
  -Hartree energ DENC   =       -21.29595069
  -exchange      EXHF   =         0.00000000
  -V(xc)+E(xc)   XCENC  =       -67.69638858
  PAW double counting   =       241.28716127     -160.47085023
  entropy T*S    EENTRO =         0.00004589
  eigenvalues    EBANDS =        -2.85259131
  atomic energy  EATOM  =       223.97520926
  ---------------------------------------------------
  free energy    TOTEN  =         5.77545451 eV

  energy without entropy =        5.77540862  energy(sigma->0) =        5.77543922


--------------------------------------------------------------------------------------------------------




--------------------------------------- Iteration      1(   2)  ---------------------------------------


    TRIAL :  cpu time    2.7630: real time    2.7646
    CORREC:  cpu time    0.0002: real time    0.0002
    --------------------------------------------
      LOOP:  cpu time    2.7635: real time    2.7662

 eigenvalue-minimisations  :  4928
 total energy-change (2. order) :-0.1360076E+02  (-0.1360078E+02)
 number of electron       8.0000000 magnetization       0.0000000      0.0000000      0.0000000
 augmentation part        8.0000000 magnetization       0.0000000      0.0000000      0.0000000

 Free energy of the ion-electron system (eV)
  ---------------------------------------------------
  alpha Z        PSCENC =         6.67624893
  Ewald energy   TEWEN  =      -213.84743004
  -Hartree energ DENC   =       -21.29595069
  -exchange      EXHF   =         0.00000000
  -V(xc)+E(xc)   XCENC  =       -67.69638858
  PAW double counting   =       241.28716127     -160.47085023
  entropy T*S    EENTRO =        -0.00001230
  eigenvalues    EBANDS =       -16.45329692
  atomic energy  EATOM  =       223.97520926
  ---------------------------------------------------
  free energy    TOTEN  =        -7.82530929 eV

  energy without entropy =       -7.82529699  energy(sigma->0) =       -7.82530519


--------------------------------------------------------------------------------------------------------




--------------------------------------- Iteration      1(   3)  ---------------------------------------


    TRIAL :  cpu time    2.7791: real time    2.7805
    CORREC:  cpu time    0.0002: real time    0.0002
    --------------------------------------------
      LOOP:  cpu time    2.7796: real time    2.7831

 eigenvalue-minimisations  :  4928
 total energy-change (2. order) :-0.1277494E+00  (-0.1277443E+00)
 number of electron       8.0000000 magnetization       0.0000000      0.0000000      0.0000000
 augmentation part        8.0000000 magnetization       0.0000000      0.0000000      0.0000000

 Free energy of the ion-electron system (eV)
  ---------------------------------------------------
  alpha Z        PSCENC =         6.67624893
  Ewald energy   TEWEN  =      -213.84743004
  -Hartree energ DENC   =       -21.29595069
  -exchange      EXHF   =         0.00000000
  -V(xc)+E(xc)   XCENC  =       -67.69638858
  PAW double counting   =       241.28716127     -160.47085023
  entropy T*S    EENTRO =        -0.00000136
  eigenvalues    EBANDS =       -16.58105729
  atomic energy  EATOM  =       223.97520926
  ---------------------------------------------------
  free energy    TOTEN  =        -7.95305873 eV

  energy without entropy =       -7.95305737  energy(sigma->0) =       -7.95305827


--------------------------------------------------------------------------------------------------------




--------------------------------------- Iteration      1(   4)  ---------------------------------------


    TRIAL :  cpu time    2.7524: real time    2.7538
    CORREC:  cpu time    0.0002: real time    0.0002
    --------------------------------------------
      LOOP:  cpu time    2.7540: real time    2.7565

 eigenvalue-minimisations  :  4928
 total energy-change (2. order) :-0.9697872E-03  (-0.9697766E-03)
 number of electron       8.0000000 magnetization       0.0000000      0.0000000      0.0000000
 augmentation part        8.0000000 magnetization       0.0000000      0.0000000      0.0000000

 Free energy of the ion-electron system (eV)
  ---------------------------------------------------
  alpha Z        PSCENC =         6.67624893
  Ewald energy   TEWEN  =      -213.84743004
  -Hartree energ DENC   =       -21.29595069
  -exchange      EXHF   =         0.00000000
  -V(xc)+E(xc)   XCENC  =       -67.69638858
  PAW double counting   =       241.28716127     -160.47085023
  entropy T*S    EENTRO =        -0.00000255
  eigenvalues    EBANDS =       -16.58202589
  atomic energy  EATOM  =       223.97520926
  ---------------------------------------------------
  free energy    TOTEN  =        -7.95402851 eV

  energy without entropy =       -7.95402597  energy(sigma->0) =       -7.95402766


--------------------------------------------------------------------------------------------------------




--------------------------------------- Iteration      1(   5)  ---------------------------------------


    TRIAL :  cpu time    2.7866: real time    2.7880
    CORREC:  cpu time    0.0002: real time    0.0002
    CHARGE:  cpu time    0.0200: real time    0.0201
    --------------------------------------------
      LOOP:  cpu time    2.8070: real time    2.8086

 eigenvalue-minimisations  :  4928
 total energy-change (2. order) :-0.1072665E-04  (-0.1072674E-04)
 number of electron       8.0000012 magnetization      -0.0000000     -0.0000000     -0.0000000
 augmentation part       -1.4726817 magnetization      -0.0000000     -0.0000000     -0.0000000

 Free energy of the ion-electron system (eV)
  ---------------------------------------------------
  alpha Z        PSCENC =         6.67624893
  Ewald energy   TEWEN  =      -213.84743004
  -Hartree energ DENC   =       -21.29595069
  -exchange      EXHF   =         0.00000000
  -V(xc)+E(xc)   XCENC  =       -67.69638858
  PAW double counting   =       241.28716127     -160.47085023
  entropy T*S    EENTRO =        -0.00000256
  eigenvalues    EBANDS =       -16.58203660
  atomic energy  EATOM  =       223.97520926
  ---------------------------------------------------
  free energy    TOTEN  =        -7.95403924 eV

  energy without entropy =       -7.95403668  energy(sigma->0) =       -7.95403838


--------------------------------------------------------------------------------------------------------




--------------------------------------- Iteration      1(   6)  ---------------------------------------


    POTLOK:  cpu time    0.0085: real time    0.0089
    SETDIJ:  cpu time    0.0091: real time    0.0091
    TRIAL :  cpu time    0.2435: real time    0.2479
    CORREC:  cpu time    0.0002: real time    0.0002
    CHARGE:  cpu time    0.0187: real time    0.0187
    --------------------------------------------
      LOOP:  cpu time    0.2813: real time    0.2870

 eigenvalue-minimisations  :     0
 total energy-change (2. order) : 0.5717967E+00  (-0.2085583E+00)
 number of electron       8.0000012 magnetization       0.0000000      0.0000000      0.0000000
 augmentation part       -1.4789893 magnetization       0.0000000      0.0000000      0.0000000

 Free energy of the ion-electron system (eV)
  ---------------------------------------------------
  alpha Z        PSCENC =         6.67624893
  Ewald energy   TEWEN  =      -213.84743004
  -Hartree energ DENC   =       -29.27948835
  -exchange      EXHF   =         0.00000000
  -V(xc)+E(xc)   XCENC  =       -66.56924738
  PAW double counting   =       553.01085940     -472.77071459
  entropy T*S    EENTRO =        -0.00010285
  eigenvalues    EBANDS =        -8.57767722
  atomic energy  EATOM  =       223.97520926
  ---------------------------------------------------
  free energy    TOTEN  =        -7.38224255 eV

  energy without entropy =       -7.38213970  energy(sigma->0) =       -7.38220826


--------------------------------------------------------------------------------------------------------




--------------------------------------- Iteration      1(   7)  ---------------------------------------


    POTLOK:  cpu time    0.0071: real time    0.0071
    SETDIJ:  cpu time    0.0091: real time    0.0091
    TRIAL :  cpu time    0.2358: real time    0.2394
    CORREC:  cpu time    0.0002: real time    0.0002
    CHARGE:  cpu time    0.0184: real time    0.0184
    --------------------------------------------
      LOOP:  cpu time    0.2709: real time    0.2745

 eigenvalue-minimisations  :     0
 total energy-change (2. order) :-0.1683724E+00  (-0.1207159E+00)
 number of electron       8.0000011 magnetization       0.0000000      0.0000000     -0.0000000
 augmentation part       -1.4838195 magnetization       0.0000000      0.0000000     -0.0000000

 Free energy of the ion-electron system (eV)
  ---------------------------------------------------
  alpha Z        PSCENC =         6.67624893
  Ewald energy   TEWEN  =      -213.84743004
  -Hartree energ DENC   =       -27.84812567
  -exchange      EXHF   =         0.00000000
  -V(xc)+E(xc)   XCENC  =       -66.68210174
  PAW double counting   =       550.27271154     -470.00596966
  entropy T*S    EENTRO =        -0.00013059
  eigenvalues    EBANDS =       -10.09105470
  atomic energy  EATOM  =       223.97520926
  ---------------------------------------------------
  free energy    TOTEN  =        -7.55061494 eV

  energy without entropy =       -7.55048434  energy(sigma->0) =       -7.55057141


--------------------------------------------------------------------------------------------------------




--------------------------------------- Iteration      1(   8)  ---------------------------------------


    POTLOK:  cpu time    0.0070: real time    0.0070
    SETDIJ:  cpu time    0.0089: real time    0.0089
    TRIAL :  cpu time    0.2358: real time    0.2397
    CORREC:  cpu time    0.0002: real time    0.0002
    CHARGE:  cpu time    0.0184: real time    0.0184
    --------------------------------------------
      LOOP:  cpu time    0.2705: real time    0.2745

 eigenvalue-minimisations  :     0
 total energy-change (2. order) :-0.8325261E-01  (-0.3133007E-01)
 number of electron       8.0000011 magnetization      -0.0000000     -0.0000000     -0.0000000
 augmentation part       -1.4890273 magnetization      -0.0000000     -0.0000000     -0.0000000

 Free energy of the ion-electron system (eV)
  ---------------------------------------------------
  alpha Z        PSCENC =         6.67624893
  Ewald energy   TEWEN  =      -213.84743004
  -Hartree energ DENC   =       -26.54963259
  -exchange      EXHF   =         0.00000000
  -V(xc)+E(xc)   XCENC  =       -66.78531811
  PAW double counting   =       545.91987093     -465.63172786
  entropy T*S    EENTRO =        -0.00013060
  eigenvalues    EBANDS =       -11.39095747
  atomic energy  EATOM  =       223.97520926
  ---------------------------------------------------
  free energy    TOTEN  =        -7.63386755 eV

  energy without entropy =       -7.63373695  energy(sigma->0) =       -7.63382402


--------------------------------------------------------------------------------------------------------




--------------------------------------- Iteration      1(   9)  ---------------------------------------


    POTLOK:  cpu time    0.0070: real time    0.0070
    SETDIJ:  cpu time    0.0089: real time    0.0089
    TRIAL :  cpu time    0.2358: real time    0.2395
    CORREC:  cpu time    0.0003: real time    0.0003
    CHARGE:  cpu time    0.0184: real time    0.0184
    --------------------------------------------
      LOOP:  cpu time    0.2707: real time    0.2744

 eigenvalue-minimisations  :     0
 total energy-change (2. order) :-0.1773510E-01  (-0.4117060E-02)
 number of electron       8.0000011 magnetization       0.0000000      0.0000000      0.0000000
 augmentation part       -1.4929994 magnetization       0.0000000      0.0000000      0.0000000

 Free energy of the ion-electron system (eV)
  ---------------------------------------------------
  alpha Z        PSCENC =         6.67624893
  Ewald energy   TEWEN  =      -213.84743004
  -Hartree energ DENC   =       -25.76607350
  -exchange      EXHF   =         0.00000000
  -V(xc)+E(xc)   XCENC  =       -66.85307169
  PAW double counting   =       540.80697069     -460.50699314
  entropy T*S    EENTRO =        -0.00013060
  eigenvalues    EBANDS =       -12.13633256
  atomic energy  EATOM  =       223.97520926
  ---------------------------------------------------
  free energy    TOTEN  =        -7.65160265 eV

  energy without entropy =       -7.65147205  energy(sigma->0) =       -7.65155912


--------------------------------------------------------------------------------------------------------




--------------------------------------- Iteration      1(  10)  ---------------------------------------


    POTLOK:  cpu time    0.0070: real time    0.0070
    SETDIJ:  cpu time    0.0089: real time    0.0089
    TRIAL :  cpu time    0.2369: real time    0.2405
    CORREC:  cpu time    0.0003: real time    0.0003
    CHARGE:  cpu time    0.0184: real time    0.0184
    --------------------------------------------
      LOOP:  cpu time    0.2717: real time    0.2753

 eigenvalue-minimisations  :     0
 total energy-change (2. order) :-0.1448562E-02  (-0.1444395E-02)
 number of electron       8.0000011 magnetization      -0.0000000      0.0000000     -0.0000000
 augmentation part       -1.4952499 magnetization      -0.0000000      0.0000000     -0.0000000

 Free energy of the ion-electron system (eV)
  ---------------------------------------------------
  alpha Z        PSCENC =         6.67624893
  Ewald energy   TEWEN  =      -213.84743004
  -Hartree energ DENC   =       -25.44950711
  -exchange      EXHF   =         0.00000000
  -V(xc)+E(xc)   XCENC  =       -66.88526112
  PAW double counting   =       536.42216749     -456.11828042
  entropy T*S    EENTRO =        -0.00013060
  eigenvalues    EBANDS =       -12.42606760
  atomic energy  EATOM  =       223.97520926
  ---------------------------------------------------
  free energy    TOTEN  =        -7.65305121 eV

  energy without entropy =       -7.65292061  energy(sigma->0) =       -7.65300768


--------------------------------------------------------------------------------------------------------




--------------------------------------- Iteration      1(  11)  ---------------------------------------


    POTLOK:  cpu time    0.0070: real time    0.0070
    SETDIJ:  cpu time    0.0089: real time    0.0089
    TRIAL :  cpu time    0.2357: real time    0.2392
    CORREC:  cpu time    0.0002: real time    0.0002
    CHARGE:  cpu time    0.0184: real time    0.0184
    --------------------------------------------
      LOOP:  cpu time    0.2705: real time    0.2740

 eigenvalue-minimisations  :     0
 total energy-change (2. order) :-0.8511647E-03  (-0.1199586E-02)
 number of electron       8.0000011 magnetization       0.0000000      0.0000000      0.0000000
 augmentation part       -1.4960434 magnetization       0.0000000      0.0000000      0.0000000

 Free energy of the ion-electron system (eV)
  ---------------------------------------------------
  alpha Z        PSCENC =         6.67624893
  Ewald energy   TEWEN  =      -213.84743004
  -Hartree energ DENC   =       -25.40699228
  -exchange      EXHF   =         0.00000000
  -V(xc)+E(xc)   XCENC  =       -66.89419534
  PAW double counting   =       533.67429965     -453.37067366
  entropy T*S    EENTRO =        -0.00013060
  eigenvalues    EBANDS =       -12.46023828
  atomic energy  EATOM  =       223.97520926
  ---------------------------------------------------
  free energy    TOTEN  =        -7.65390238 eV

  energy without entropy =       -7.65377178  energy(sigma->0) =       -7.65385884


--------------------------------------------------------------------------------------------------------




--------------------------------------- Iteration      1(  12)  ---------------------------------------


    POTLOK:  cpu time    0.0069: real time    0.0071
    SETDIJ:  cpu time    0.0089: real time    0.0089
    TRIAL :  cpu time    0.2355: real time    0.2390
    CORREC:  cpu time    0.0002: real time    0.0002
    CHARGE:  cpu time    0.0184: real time    0.0184
    --------------------------------------------
      LOOP:  cpu time    0.2702: real time    0.2740

 eigenvalue-minimisations  :     0
 total energy-change (2. order) :-0.8311959E-03  (-0.5877962E-03)
 number of electron       8.0000011 magnetization      -0.0000000      0.0000000      0.0000000
 augmentation part       -1.4959550 magnetization      -0.0000000      0.0000000      0.0000000

 Free energy of the ion-electron system (eV)
  ---------------------------------------------------
  alpha Z        PSCENC =         6.67624893
  Ewald energy   TEWEN  =      -213.84743004
  -Hartree energ DENC   =       -25.47000766
  -exchange      EXHF   =         0.00000000
  -V(xc)+E(xc)   XCENC  =       -66.89214455
  PAW double counting   =       532.49976274     -452.19760859
  entropy T*S    EENTRO =        -0.00013060
  eigenvalues    EBANDS =       -12.39863305
  atomic energy  EATOM  =       223.97520926
  ---------------------------------------------------
  free energy    TOTEN  =        -7.65473357 eV

  energy without entropy =       -7.65460297  energy(sigma->0) =       -7.65469004


--------------------------------------------------------------------------------------------------------




--------------------------------------- Iteration      1(  13)  ---------------------------------------


    POTLOK:  cpu time    0.0069: real time    0.0069
    SETDIJ:  cpu time    0.0089: real time    0.0089
    TRIAL :  cpu time    0.2354: real time    0.2389
    CORREC:  cpu time    0.0003: real time    0.0003
    CHARGE:  cpu time    0.0184: real time    0.0185
    --------------------------------------------
      LOOP:  cpu time    0.2701: real time    0.2737

 eigenvalue-minimisations  :     0
 total energy-change (2. order) :-0.3913119E-03  (-0.2110866E-03)
 number of electron       8.0000011 magnetization      -0.0000000     -0.0000000     -0.0000000
 augmentation part       -1.4955139 magnetization      -0.0000000     -0.0000000     -0.0000000

 Free energy of the ion-electron system (eV)
  ---------------------------------------------------
  alpha Z        PSCENC =         6.67624893
  Ewald energy   TEWEN  =      -213.84743004
  -Hartree energ DENC   =       -25.54210422
  -exchange      EXHF   =         0.00000000
  -V(xc)+E(xc)   XCENC  =       -66.88715920
  PAW double counting   =       532.34048776     -452.03952655
  entropy T*S    EENTRO =        -0.00013060
  eigenvalues    EBANDS =       -12.33072022
  atomic energy  EATOM  =       223.97520926
  ---------------------------------------------------
  free energy    TOTEN  =        -7.65512488 eV

  energy without entropy =       -7.65499428  energy(sigma->0) =       -7.65508135


--------------------------------------------------------------------------------------------------------




--------------------------------------- Iteration      1(  14)  ---------------------------------------


    POTLOK:  cpu time    0.0069: real time    0.0069
    SETDIJ:  cpu time    0.0089: real time    0.0089
    TRIAL :  cpu time    0.2360: real time    0.2396
    CORREC:  cpu time    0.0002: real time    0.0002
    CHARGE:  cpu time    0.0184: real time    0.0185
    --------------------------------------------
      LOOP:  cpu time    0.2708: real time    0.2744

 eigenvalue-minimisations  :     0
 total energy-change (2. order) :-0.1372722E-03  (-0.7718117E-04)
 number of electron       8.0000011 magnetization      -0.0000000     -0.0000000     -0.0000000
 augmentation part       -1.4950693 magnetization      -0.0000000     -0.0000000     -0.0000000

 Free energy of the ion-electron system (eV)
  ---------------------------------------------------
  alpha Z        PSCENC =         6.67624893
  Ewald energy   TEWEN  =      -213.84743004
  -Hartree energ DENC   =       -25.58816723
  -exchange      EXHF   =         0.00000000
  -V(xc)+E(xc)   XCENC  =       -66.88297664
  PAW double counting   =       532.65807164     -452.35764698
  entropy T*S    EENTRO =        -0.00013060
  eigenvalues    EBANDS =       -12.28844049
  atomic energy  EATOM  =       223.97520926
  ---------------------------------------------------
  free energy    TOTEN  =        -7.65526215 eV

  energy without entropy =       -7.65513156  energy(sigma->0) =       -7.65521862


--------------------------------------------------------------------------------------------------------




--------------------------------------- Iteration      1(  15)  ---------------------------------------


    POTLOK:  cpu time    0.0069: real time    0.0069
    SETDIJ:  cpu time    0.0089: real time    0.0089
    TRIAL :  cpu time    0.2354: real time    0.2393
    CORREC:  cpu time    0.0002: real time    0.0002
    EDDIAG:  cpu time    0.1512: real time    0.1546
    CHARGE:  cpu time    0.0184: real time    0.0184
    --------------------------------------------
      LOOP:  cpu time    0.4215: real time    0.4287

 eigenvalue-minimisations  :     0
 total energy-change (2. order) :-0.5094330E-04  (-0.2935424E-04)
 number of electron       8.0000011 magnetization       0.0000000      0.0000000     -0.0000000
 augmentation part       -1.4947741 magnetization       0.0000000      0.0000000     -0.0000000

 Free energy of the ion-electron system (eV)
  ---------------------------------------------------
  alpha Z        PSCENC =         6.67624893
  Ewald energy   TEWEN  =      -213.84743004
  -Hartree energ DENC   =       -25.60743368
  -exchange      EXHF   =         0.00000000
  -V(xc)+E(xc)   XCENC  =       -66.88052954
  PAW double counting   =       533.06429625     -452.76389935
  entropy T*S    EENTRO =        -0.00013060
  eigenvalues    EBANDS =       -12.27164432
  atomic energy  EATOM  =       223.97520926
  ---------------------------------------------------
  free energy    TOTEN  =        -7.65531310 eV

  energy without entropy =       -7.65518250  energy(sigma->0) =       -7.65526957


--------------------------------------------------------------------------------------------------------


  average scaling for gradient   1.4570


 average (electrostatic) potential at core
  the test charge radii are     1.4837  1.0621
  (the norm of the test charge is              1.0000)
       1 -39.0399       2 -50.7720
 
 
 
 E-fermi :   3.3820     XC(G=0):  -8.8365     alpha+bet : -8.8632


 k-point     1 :       0.0000    0.0000    0.0000
  band No.  band energies     occupation 
      1      -8.5351      1.00000
      2      -8.5351      1.00000
      3       3.0331      1.00000
      4       3.0331      1.00000
      5       3.0996      1.00000
      6       3.0996      1.00000
      7       3.3857      0.50008
      8       3.3857      0.50006
      9       3.3857      0.49993
     10       3.3857      0.49993
     11       6.9075      0.00000
     12       6.9075      0.00000
     13       7.3573      0.00000
     14       7.3573      0.00000
     15       7.3573      0.00000
     16       7.3573      0.00000
     17      10.7904      0.00000
     18      10.7904      0.00000
     19      12.7784      0.00000
     20      12.7784      0.00000
     21      12.7784      0.00000
     22      12.7784      0.00000
     23      13.6230      0.00000
     24      13.6230      0.00000
     25      13.6561      0.00000
     26      13.6561      0.00000
     27      13.6561      0.00000
     28      13.6561      0.00000
     29      16.2041      0.00000
     30      16.2041      0.00000
     31      24.5411      0.00000
     32      24.5411      0.00000
     33      24.5411      0.00000
     34      24.5411      0.00000
     35      24.7319      0.00000
     36      24.7319      0.00000
     37      25.6919      0.00000
     38      25.6919      0.00000
     39      25.7901      0.00000
     40      25.7901      0.00000
     41      25.7901      0.00000
     42      25.7901      0.00000
     43      25.8312      0.00000
     44      25.8312      0.00000
     45      25.8312      0.00000
     46      25.8312      0.00000
     47      25.8312      0.00000
     48      25.8312      0.00000
     49      26.2416      0.00000
     50      26.2416      0.00000
     51      26.2416      0.00000
     52      26.2416      0.00000
     53      33.3141      0.00000
     54      33.3930      0.00000
     55      33.4573      0.00000
     56      33.7412      0.00000

 k-point     2 :       0.1667    0.0000    0.0000
  band No.  band energies     occupation 
      1      -8.2937      1.00000
      2      -8.2937      1.00000
      3       0.7688      1.00000
      4       0.7688      1.00000
      5       2.8352      1.00000
      6       2.8352      1.00000
      7       3.0744      1.00000
      8       3.0819      1.00000
      9       4.5363     -0.00000
     10       4.5363     -0.00000
     11       7.4345      0.00000
     12       7.4345      0.00000
     13       7.6751      0.00000
     14       7.6751      0.00000
     15       7.7898      0.00000
     16       7.7914      0.00000
     17      11.7500      0.00000
     18      11.7811      0.00000
     19      11.7811      0.00000
     20      11.8164      0.00000
     21      11.8553      0.00000
     22      11.8553      0.00000
     23      13.2579      0.00000
     24      13.2579      0.00000
     25      15.6451      0.00000
     26      15.6522      0.00000
     27      15.6522      0.00000
     28      15.7130      0.00000
     29      18.1533      0.00000
     30      18.1533      0.00000
     31      21.3172      0.00000
     32      21.3172      0.00000
     33      21.4569      0.00000
     34      21.5009      0.00000
     35      21.8643      0.00000
     36      21.8643      0.00000
     37      25.1309      0.00000
     38      25.1932      0.00000
     39      25.3857      0.00000
     40      25.3857      0.00000
     41      26.0143      0.00000
     42      26.0143      0.00000
     43      26.0543      0.00000
     44      26.0543      0.00000
     45      26.2676      0.00000
     46      26.2783      0.00000
     47      27.3621      0.00000
     48      27.3622      0.00000
     49      29.8080      0.00000
     50      29.8105      0.00000
     51      29.8751      0.00000
     52      29.9255      0.00000
     53      30.4852      0.00000
     54      30.5168      0.00000
     55      31.9704      0.00000
     56      32.1983      0.00000

 k-point     3 :       0.3333    0.0000    0.0000
  band No.  band energies     occupation 
      1      -7.6855      1.00000
      2      -7.6855      1.00000
      3      -1.4392      1.00000
      4      -1.4392      1.00000
      5       2.3575      1.00000
      6       2.3575      1.00000
      7       2.6051      1.00000
      8       2.6112      1.00000
      9       4.4060     -0.00000
     10       4.4060     -0.00000
     11       7.8974      0.00000
     12       7.8974      0.00000
     13       8.1105      0.00000
     14       8.1129      0.00000
     15       9.4132      0.00000
     16       9.4132      0.00000
     17      11.4135      0.00000
     18      11.4135      0.00000
     19      12.2296      0.00000
     20      12.2296      0.00000
     21      12.2665      0.00000
     22      12.3277      0.00000
     23      16.0125      0.00000
     24      16.0125      0.00000
     25      17.6947      0.00000
     26      17.6947      0.00000
     27      17.7906      0.00000
     28      17.8544      0.00000
     29      18.4656      0.00000
     30      18.4656      0.00000
     31      18.7495      0.00000
     32      18.7495      0.00000
     33      18.7568      0.00000
     34      18.8096      0.00000
     35      21.8022      0.00000
     36      21.8022      0.00000
     37      25.2005      0.00000
     38      25.3661      0.00000
     39      25.4242      0.00000
     40      25.4242      0.00000
     41      25.6832      0.00000
     42      25.6832      0.00000
     43      26.3708      0.00000
     44      26.3709      0.00000
     45      26.4209      0.00000
     46      26.4915      0.00000
     47      26.6005      0.00000
     48      26.6008      0.00000
     49      27.4808      0.00000
     50      27.4816      0.00000
     51      27.5942      0.00000
     52      27.6129      0.00000
     53      28.9168      0.00000
     54      28.9196      0.00000
     55      31.1928      0.00000
     56      31.3660      0.00000

 k-point     4 :       0.5000    0.0000    0.0000
  band No.  band energies     occupation 
      1      -7.2676      1.00000
      2      -7.2676      1.00000
      3      -2.4328      1.00000
      4      -2.4328      1.00000
      5       2.1628      1.00000
      6       2.1628      1.00000
      7       2.4162      1.00000
      8       2.4162      1.00000
      9       4.2536     -0.00000
     10       4.2536     -0.00000
     11       7.8805      0.00000
     12       7.8805      0.00000
     13       8.0501      0.00000
     14       8.0501      0.00000
     15      10.1118      0.00000
     16      10.1118      0.00000
     17      12.2918      0.00000
     18      12.2918      0.00000
     19      13.8821      0.00000
     20      13.8821      0.00000
     21      14.0421      0.00000
     22      14.0421      0.00000
     23      14.9496      0.00000
     24      14.9496      0.00000
     25      15.1718      0.00000
     26      15.1718      0.00000
     27      15.2517      0.00000
     28      15.2517      0.00000
     29      20.6994      0.00000
     30      20.6994      0.00000
     31      21.9324      0.00000
     32      21.9324      0.00000
     33      22.0257      0.00000
     34      22.0257      0.00000
     35      22.0567      0.00000
     36      22.0567      0.00000
     37      22.7582      0.00000
     38      22.7582      0.00000
     39      22.7833      0.00000
     40      22.7833      0.00000
     41      25.3335      0.00000
     42      25.3335      0.00000
     43      26.0857      0.00000
     44      26.0858      0.00000
     45      26.3303      0.00000
     46      26.3305      0.00000
     47      26.7580      0.00000
     48      26.7585      0.00000
     49      26.9242      0.00000
     50      26.9245      0.00000
     51      26.9572      0.00000
     52      26.9602      0.00000
     53      27.0997      0.00000
     54      27.1041      0.00000
     55      30.4038      0.00000
     56      30.5682      0.00000

 k-point     5 :      -0.3333    0.0000    0.0000
  band No.  band energies     occupation 
      1      -7.6855      1.00000
      2      -7.6855      1.00000
      3      -1.4392      1.00000
      4      -1.4392      1.00000
      5       2.3575      1.00000
      6       2.3575      1.00000
      7       2.6051      1.00000
      8       2.6112      1.00000
      9       4.4060     -0.00000
     10       4.4060     -0.00000
     11       7.8974      0.00000
     12       7.8974      0.00000
     13       8.1105      0.00000
     14       8.1129      0.00000
     15       9.4132      0.00000
     16       9.4132      0.00000
     17      11.4135      0.00000
     18      11.4135      0.00000
     19      12.2296      0.00000
     20      12.2296      0.00000
     21      12.2665      0.00000
     22      12.3277      0.00000
     23      16.0125      0.00000
     24      16.0125      0.00000
     25      17.6947      0.00000
     26      17.6947      0.00000
     27      17.7906      0.00000
     28      17.8544      0.00000
     29      18.4656      0.00000
     30      18.4656      0.00000
     31      18.7495      0.00000
     32      18.7495      0.00000
     33      18.7568      0.00000
     34      18.8097      0.00000
     35      21.8022      0.00000
     36      21.8022      0.00000
     37      25.2005      0.00000
     38      25.3661      0.00000
     39      25.4242      0.00000
     40      25.4242      0.00000
     41      25.6832      0.00000
     42      25.6832      0.00000
     43      26.3708      0.00000
     44      26.3708      0.00000
     45      26.4209      0.00000
     46      26.4914      0.00000
     47      26.6005      0.00000
     48      26.6008      0.00000
     49      27.4810      0.00000
     50      27.4811      0.00000
     51      27.5938      0.00000
     52      27.6128      0.00000
     53      28.9168      0.00000
     54      28.9216      0.00000
     55      31.1568      0.00000
     56      31.2911      0.00000

 k-point     6 :      -0.1667    0.0000    0.0000
  band No.  band energies     occupation 
      1      -8.2937      1.00000
      2      -8.2937      1.00000
      3       0.7688      1.00000
      4       0.7688      1.00000
      5       2.8352      1.00000
      6       2.8352      1.00000
      7       3.0744      1.00000
      8       3.0819      1.00000
      9       4.5363     -0.00000
     10       4.5363     -0.00000
     11       7.4345      0.00000
     12       7.4345      0.00000
     13       7.6751      0.00000
     14       7.6751      0.00000
     15       7.7898      0.00000
     16       7.7914      0.00000
     17      11.7500      0.00000
     18      11.7811      0.00000
     19      11.7811      0.00000
     20      11.8164      0.00000
     21      11.8553      0.00000
     22      11.8553      0.00000
     23      13.2579      0.00000
     24      13.2579      0.00000
     25      15.6451      0.00000
     26      15.6522      0.00000
     27      15.6522      0.00000
     28      15.7130      0.00000
     29      18.1533      0.00000
     30      18.1533      0.00000
     31      21.3172      0.00000
     32      21.3172      0.00000
     33      21.4569      0.00000
     34      21.5009      0.00000
     35      21.8643      0.00000
     36      21.8643      0.00000
     37      25.1309      0.00000
     38      25.1932      0.00000
     39      25.3857      0.00000
     40      25.3857      0.00000
     41      26.0143      0.00000
     42      26.0143      0.00000
     43      26.0543      0.00000
     44      26.0543      0.00000
     45      26.2676      0.00000
     46      26.2783      0.00000
     47      27.3621      0.00000
     48      27.3622      0.00000
     49      29.8092      0.00000
     50      29.8163      0.00000
     51      29.8747      0.00000
     52      29.9274      0.00000
     53      30.4856      0.00000
     54      30.5007      0.00000
     55      32.0299      0.00000
     56      32.1850      0.00000

 k-point     7 :       0.1667    0.1667    0.0000
  band No.  band energies     occupation 
      1      -8.2119      1.00000
      2      -8.2119      1.00000
      3       0.7175      1.00000
      4       0.7175      1.00000
      5       2.3777      1.00000
      6       2.3777      1.00000
      7       2.5056      1.00000
      8       2.5056      1.00000
      9       5.5160      0.00000
     10       5.5160      0.00000
     11       6.1793      0.00000
     12       6.1793      0.00000
     13       8.3474      0.00000
     14       8.3474      0.00000
     15       8.5405      0.00000
     16       8.5405      0.00000
     17      10.3286      0.00000
     18      10.3286      0.00000
     19      12.7217      0.00000
     20      12.7217      0.00000
     21      13.0765      0.00000
     22      13.0765      0.00000
     23      14.4678      0.00000
     24      14.4678      0.00000
     25      14.5042      0.00000
     26      14.5042      0.00000
     27      15.1384      0.00000
     28      15.1384      0.00000
     29      19.2687      0.00000
     30      19.2687      0.00000
     31      21.0578      0.00000
     32      21.0578      0.00000
     33      21.2529      0.00000
     34      21.2529      0.00000
     35      21.8673      0.00000
     36      21.8673      0.00000
     37      22.6306      0.00000
     38      22.6306      0.00000
     39      25.1447      0.00000
     40      25.1447      0.00000
     41      25.9003      0.00000
     42      25.9004      0.00000
     43      26.0890      0.00000
     44      26.0891      0.00000
     45      27.1748      0.00000
     46      27.1751      0.00000
     47      29.4906      0.00000
     48      29.5121      0.00000
     49      29.5889      0.00000
     50      29.6255      0.00000
     51      30.2251      0.00000
     52      30.2659      0.00000
     53      30.3081      0.00000
     54      30.4370      0.00000
     55      31.0532      0.00000
     56      31.7208      0.00000

 k-point     8 :       0.3333    0.1667    0.0000
  band No.  band energies     occupation 
      1      -7.7159      1.00000
      2      -7.7119      1.00000
      3      -0.9412      1.00000
      4      -0.9333      1.00000
      5       1.6869      1.00000
      6       1.7120      1.00000
      7       1.9742      1.00000
      8       1.9746      1.00000
      9       5.6759      0.00000
     10       5.6836      0.00000
     11       6.7477      0.00000
     12       6.7620      0.00000
     13       8.6599      0.00000
     14       8.6883      0.00000
     15       9.1190      0.00000
     16       9.1254      0.00000
     17      11.1615      0.00000
     18      11.1741      0.00000
     19      13.2390      0.00000
     20      13.2763      0.00000
     21      13.2969      0.00000
     22      13.3285      0.00000
     23      15.4783      0.00000
     24      15.5013      0.00000
     25      16.7384      0.00000
     26      16.7704      0.00000
     27      17.6969      0.00000
     28      17.7010      0.00000
     29      17.9898      0.00000
     30      17.9901      0.00000
     31      18.0864      0.00000
     32      18.1257      0.00000
     33      21.4579      0.00000
     34      21.5772      0.00000
     35      21.9873      0.00000
     36      22.0269      0.00000
     37      22.3830      0.00000
     38      22.3852      0.00000
     39      23.0916      0.00000
     40      23.1211      0.00000
     41      25.6238      0.00000
     42      25.6772      0.00000
     43      26.1365      0.00000
     44      26.1482      0.00000
     45      26.7017      0.00000
     46      26.7207      0.00000
     47      28.1610      0.00000
     48      28.2369      0.00000
     49      28.5333      0.00000
     50      28.5540      0.00000
     51      29.4184      0.00000
     52      29.4374      0.00000
     53      29.8288      0.00000
     54      30.0125      0.00000
     55      30.1765      0.00000
     56      30.4574      0.00000

 k-point     9 :       0.5000    0.1667    0.0000
  band No.  band energies     occupation 
      1      -7.1721      1.00000
      2      -7.1606      1.00000
      3      -2.2440      1.00000
      4      -2.2185      1.00000
      5       1.0353      1.00000
      6       1.0515      1.00000
      7       1.8826      1.00000
      8       1.8857      1.00000
      9       5.5036      0.00000
     10       5.5047      0.00000
     11       7.5012      0.00000
     12       7.5385      0.00000
     13       8.8739      0.00000
     14       8.8775      0.00000
     15       9.6785      0.00000
     16       9.7513      0.00000
     17      12.1073      0.00000
     18      12.2190      0.00000
     19      13.6149      0.00000
     20      13.6637      0.00000
     21      14.0351      0.00000
     22      14.0675      0.00000
     23      14.8833      0.00000
     24      14.9571      0.00000
     25      15.5295      0.00000
     26      15.5543      0.00000
     27      18.3671      0.00000
     28      18.4904      0.00000
     29      19.7030      0.00000
     30      19.7536      0.00000
     31      20.0453      0.00000
     32      20.0842      0.00000
     33      21.1272      0.00000
     34      21.1303      0.00000
     35      21.9795      0.00000
     36      22.0103      0.00000
     37      22.5106      0.00000
     38      22.5662      0.00000
     39      23.4731      0.00000
     40      23.4855      0.00000
     41      24.1067      0.00000
     42      24.2362      0.00000
     43      25.2765      0.00000
     44      25.3176      0.00000
     45      25.8496      0.00000
     46      25.8551      0.00000
     47      26.4074      0.00000
     48      26.4753      0.00000
     49      26.9520      0.00000
     50      27.0671      0.00000
     51      28.0256      0.00000
     52      28.1309      0.00000
     53      28.4549      0.00000
     54      28.5618      0.00000
     55      29.2640      0.00000
     56      29.7398      0.00000

 k-point    10 :      -0.3333    0.1667    0.0000
  band No.  band energies     occupation 
      1      -7.3209      1.00000
      2      -7.3104      1.00000
      3      -1.9286      1.00000
      4      -1.9019      1.00000
      5       0.8832      1.00000
      6       0.8922      1.00000
      7       2.2492      1.00000
      8       2.2563      1.00000
      9       5.5679      0.00000
     10       5.5836      0.00000
     11       7.7841      0.00000
     12       7.7975      0.00000
     13       8.4978      0.00000
     14       8.5013      0.00000
     15       9.4951      0.00000
     16       9.5420      0.00000
     17      11.7843      0.00000
     18      11.8103      0.00000
     19      12.5829      0.00000
     20      12.6952      0.00000
     21      13.8632      0.00000
     22      13.9384      0.00000
     23      15.0793      0.00000
     24      15.1738      0.00000
     25      17.1124      0.00000
     26      17.1379      0.00000
     27      18.1529      0.00000
     28      18.2199      0.00000
     29      18.3453      0.00000
     30      18.3554      0.00000
     31      19.7073      0.00000
     32      19.7358      0.00000
     33      21.3789      0.00000
     34      21.4345      0.00000
     35      22.4386      0.00000
     36      22.4515      0.00000
     37      22.8404      0.00000
     38      23.0259      0.00000
     39      23.8570      0.00000
     40      23.9679      0.00000
     41      24.2365      0.00000
     42      24.2703      0.00000
     43      24.4747      0.00000
     44      24.5079      0.00000
     45      26.2782      0.00000
     46      26.3496      0.00000
     47      26.4663      0.00000
     48      26.5236      0.00000
     49      27.0520      0.00000
     50      27.0534      0.00000
     51      28.0458      0.00000
     52      28.0575      0.00000
     53      28.4711      0.00000
     54      28.5154      0.00000
     55      30.4583      0.00000
     56      30.8631      0.00000

 k-point    11 :      -0.1667    0.1667    0.0000
  band No.  band energies     occupation 
      1      -7.9237      1.00000
      2      -7.9201      1.00000
      3      -0.4369      1.00000
      4      -0.4275      1.00000
      5       1.5449      1.00000
      6       1.5601      1.00000
      7       2.8187      1.00000
      8       2.8295      1.00000
      9       5.4675      0.00000
     10       5.4926      0.00000
     11       7.4710      0.00000
     12       7.6258      0.00000
     13       7.8918      0.00000
     14       7.9283      0.00000
     15       8.4298      0.00000
     16       8.5149      0.00000
     17      10.9208      0.00000
     18      10.9527      0.00000
     19      12.3619      0.00000
     20      12.3644      0.00000
     21      13.3319      0.00000
     22      13.3683      0.00000
     23      14.4531      0.00000
     24      14.4867      0.00000
     25      15.8835      0.00000
     26      15.9592      0.00000
     27      17.6099      0.00000
     28      17.7018      0.00000
     29      18.2598      0.00000
     30      18.3030      0.00000
     31      20.3213      0.00000
     32      20.3475      0.00000
     33      21.4418      0.00000
     34      21.5017      0.00000
     35      21.6593      0.00000
     36      21.6884      0.00000
     37      21.8839      0.00000
     38      21.9653      0.00000
     39      23.1715      0.00000
     40      23.2838      0.00000
     41      26.0380      0.00000
     42      26.1241      0.00000
     43      26.4697      0.00000
     44      26.4960      0.00000
     45      27.4329      0.00000
     46      27.5312      0.00000
     47      28.2722      0.00000
     48      28.2920      0.00000
     49      29.2973      0.00000
     50      29.3904      0.00000
     51      29.7021      0.00000
     52      29.7460      0.00000
     53      30.4504      0.00000
     54      30.6201      0.00000
     55      31.1209      0.00000
     56      31.2324      0.00000

 k-point    12 :       0.3333    0.3333    0.0000
  band No.  band energies     occupation 
      1      -7.3762      1.00000
      2      -7.3762      1.00000
      3      -1.4403      1.00000
      4      -1.4403      1.00000
      5       1.3530      1.00000
      6       1.3530      1.00000
      7       1.4010      1.00000
      8       1.4010      1.00000
      9       5.1371      0.00000
     10       5.1371      0.00000
     11       5.8806      0.00000
     12       5.8806      0.00000
     13      10.5777      0.00000
     14      10.5777      0.00000
     15      10.7124      0.00000
     16      10.7124      0.00000
     17      10.8246      0.00000
     18      10.8246      0.00000
     19      13.9282      0.00000
     20      13.9282      0.00000
     21      15.6037      0.00000
     22      15.6037      0.00000
     23      16.8277      0.00000
     24      16.8277      0.00000
     25      16.8967      0.00000
     26      16.8967      0.00000
     27      17.3347      0.00000
     28      17.3347      0.00000
[...]
  0.000   0.000   0.000   0.000   3.950   0.000  -0.000   0.000  -0.000   0.094   6.785   0.000  -0.000   0.000  -0.000   0.165
  0.000   0.000   0.000   0.000  -0.000   0.000   3.950   0.000  -0.000   0.000  -0.000   0.000   6.785   0.000  -0.000   0.000
  0.000   0.000   0.000   0.000  -0.000  -0.094  -0.000   0.000   3.950   0.000  -0.000  -0.165  -0.000   0.000   6.785   0.000
  0.000   0.000   0.000   0.000   6.785   0.000  -0.000   0.000  -0.000   0.165  11.711   0.000  -0.000   0.000  -0.000   0.291
  0.000   0.000   0.000   0.000  -0.000   0.000   6.785   0.000  -0.000   0.000  -0.000   0.000  11.711   0.000  -0.000   0.000
  0.000   0.000   0.000   0.000  -0.000  -0.165  -0.000   0.000   6.785   0.000  -0.000  -0.291  -0.000   0.000  11.711   0.000
 -0.000   0.000  -0.000   0.000   0.000   0.000   0.006   0.000   0.000   0.000   0.000   0.000   0.009   0.000   0.000   0.000
 -0.000   0.000  -0.000   0.000  -0.000   0.000   0.000   0.000   0.006   0.000  -0.000   0.000   0.000   0.000   0.009   0.000
 -0.000   0.000  -0.000   0.000  -0.000   0.000   0.000   0.000  -0.000   0.000  -0.000   0.000   0.000   0.000  -0.000   0.000
 -0.000   0.000  -0.000   0.000   0.006   0.000   0.000   0.000   0.000   0.000   0.009   0.000   0.000   0.000   0.000   0.000
 -0.000   0.000  -0.000   0.000  -0.000   0.000   0.000   0.000   0.000   0.000  -0.000   0.000   0.000   0.000   0.000   0.000
 pseudopotential strength for first ion, spin component:           2
  0.000  -0.000   0.000  -0.000   0.000   0.000  -0.000  -0.000  -0.000   0.000   0.000   0.000  -0.000  -0.000  -0.000   0.000
  0.000  -0.000   0.000  -0.000   0.000   0.000  -0.000  -0.000  -0.000   0.000   0.000   0.000  -0.000  -0.000  -0.000   0.000
  0.000   0.000   0.000   0.000   0.000  -0.000   0.000  -0.094  -0.000  -0.000   0.000  -0.000   0.000  -0.165  -0.000  -0.000
 -0.000  -0.000  -0.000  -0.000   0.000   0.094   0.000  -0.000  -0.094  -0.000   0.000   0.165   0.000  -0.000  -0.165  -0.000
 -0.000   0.000  -0.000   0.000  -0.000  -0.000   0.094  -0.000   0.000  -0.000  -0.000  -0.000   0.165  -0.000   0.000  -0.000
  0.000   0.000   0.000   0.000   0.000  -0.000   0.000  -0.165  -0.000  -0.000   0.000  -0.000   0.000  -0.291  -0.000  -0.000
 -0.000  -0.000  -0.000  -0.000   0.000   0.165   0.000  -0.000  -0.165  -0.000   0.000   0.291   0.000  -0.000  -0.291  -0.000
 -0.000   0.000  -0.000   0.000  -0.000  -0.000   0.165  -0.000   0.000  -0.000  -0.000  -0.000   0.291  -0.000   0.000  -0.000
 -0.000  -0.000  -0.000  -0.000   0.000   0.000   0.000   0.000   0.000   0.000   0.000   0.000   0.000   0.000   0.000   0.000
  0.000  -0.000   0.000  -0.000  -0.000   0.000   0.000  -0.000   0.000   0.000  -0.000   0.000   0.000  -0.000   0.000   0.000
 -0.000  -0.000  -0.000  -0.000   0.000  -0.000  -0.000  -0.000  -0.000  -0.000   0.000  -0.000  -0.000  -0.000  -0.000  -0.000
  0.000  -0.000   0.000  -0.000   0.000   0.000  -0.000   0.000   0.000  -0.000   0.000   0.000  -0.000   0.000   0.000  -0.000
 -0.000   0.000  -0.000   0.000   0.000   0.000   0.000  -0.000  -0.000   0.000   0.000   0.000   0.000  -0.000  -0.000   0.000
 pseudopotential strength for first ion, spin component:           3
  0.000   0.000   0.000   0.000   0.000  -0.000  -0.000   0.000  -0.000  -0.000   0.000  -0.000  -0.000   0.000  -0.000  -0.000
  0.000   0.000   0.000   0.000   0.000  -0.000  -0.000   0.000  -0.000  -0.000   0.000  -0.000  -0.000   0.000  -0.000  -0.000
  0.000  -0.000   0.000  -0.000   0.000   0.000   0.000  -0.094  -0.000   0.000   0.000   0.000   0.000  -0.165  -0.000   0.000
 -0.000   0.000  -0.000   0.000   0.000   0.094   0.000   0.000   0.094   0.000   0.000   0.165   0.000   0.000   0.165   0.000
 -0.000  -0.000  -0.000  -0.000  -0.000   0.000  -0.094   0.000   0.000   0.000  -0.000   0.000  -0.165   0.000   0.000   0.000
  0.000  -0.000   0.000  -0.000   0.000   0.000   0.000  -0.165  -0.000   0.000   0.000   0.000   0.000  -0.291  -0.000   0.000
 -0.000   0.000  -0.000   0.000   0.000   0.165   0.000   0.000   0.165   0.000   0.000   0.291   0.000   0.000   0.291   0.000
 -0.000  -0.000  -0.000  -0.000  -0.000   0.000  -0.165   0.000   0.000   0.000  -0.000   0.000  -0.291   0.000   0.000   0.000
 -0.000   0.000  -0.000   0.000   0.000  -0.000   0.000  -0.000   0.000  -0.000   0.000  -0.000   0.000  -0.000   0.000  -0.000
  0.000   0.000   0.000   0.000  -0.000  -0.000   0.000   0.000   0.000  -0.000  -0.000  -0.000   0.000   0.000   0.000  -0.000
 -0.000   0.000  -0.000   0.000   0.000   0.000  -0.000   0.000  -0.000   0.000   0.000   0.000  -0.000   0.000  -0.000   0.000
  0.000   0.000   0.000   0.000   0.000  -0.000  -0.000  -0.000   0.000   0.000   0.000  -0.000  -0.000  -0.000   0.000   0.000
 -0.000  -0.000  -0.000  -0.000   0.000  -0.000   0.000   0.000  -0.000  -0.000   0.000  -0.000   0.000   0.000  -0.000  -0.000
 pseudopotential strength for first ion, spin component:           4
 21.444   0.000  25.654   0.000   0.000   0.000   0.000   0.000   0.000   0.000   0.000   0.000   0.000   0.000   0.000   0.000
 25.654   0.000  30.704   0.000   0.000   0.000   0.000   0.000   0.000   0.000   0.000   0.000   0.000   0.000   0.000   0.000
  0.000   0.000   0.000   0.000   3.950   0.000  -0.000   0.000  -0.000  -0.094   6.785   0.000  -0.000   0.000  -0.000  -0.165
  0.000   0.000   0.000   0.000  -0.000   0.000   3.950   0.000  -0.000   0.000  -0.000   0.000   6.785   0.000  -0.000   0.000
  0.000   0.000   0.000   0.000  -0.000   0.094  -0.000   0.000   3.950   0.000  -0.000   0.165  -0.000   0.000   6.785   0.000
  0.000   0.000   0.000   0.000   6.785   0.000  -0.000   0.000  -0.000  -0.165  11.711   0.000  -0.000   0.000  -0.000  -0.291
  0.000   0.000   0.000   0.000  -0.000   0.000   6.785   0.000  -0.000   0.000  -0.000   0.000  11.711   0.000  -0.000   0.000
  0.000   0.000   0.000   0.000  -0.000   0.165  -0.000   0.000   6.785   0.000  -0.000   0.291  -0.000   0.000  11.711   0.000
 -0.000   0.000  -0.000   0.000   0.000   0.000   0.006   0.000   0.000   0.000   0.000   0.000   0.009   0.000   0.000   0.000
 -0.000   0.000  -0.000   0.000   0.000   0.000   0.000   0.000   0.006   0.000   0.000   0.000   0.000   0.000   0.009   0.000
  0.000   0.000   0.000   0.000  -0.000   0.000   0.000   0.000  -0.000   0.000  -0.000   0.000   0.000   0.000  -0.000   0.000
 -0.000   0.000  -0.000   0.000   0.006   0.000   0.000   0.000  -0.000   0.000   0.009   0.000   0.000   0.000  -0.000   0.000
  0.000   0.000   0.000   0.000  -0.000   0.000  -0.000   0.000   0.000   0.000  -0.000   0.000  -0.000   0.000   0.000   0.000
 total augmentation occupancy for first ion, spin component:           1
  6.855  -3.485   0.000   0.000   0.000   0.000  -0.000   0.000   0.000   0.000   0.000  -0.000   0.000
 -3.485   2.001   0.000  -0.000   0.000   0.000   0.000   0.000   0.000  -0.000   0.000  -0.000   0.000
 -0.000   0.000   2.940   0.000  -0.000  -0.807   0.000  -0.000   0.000  -0.000  -0.000   0.413   0.000
  0.000  -0.000   0.000   2.940  -0.000   0.000  -0.807   0.000   0.413   0.000  -0.000   0.000   0.000
  0.000  -0.000  -0.000  -0.000   2.940  -0.000  -0.000  -0.807   0.000   0.413   0.000  -0.000   0.000
 -0.000   0.000  -0.807   0.000   0.000   0.239   0.000  -0.000   0.000   0.000  -0.000  -0.110  -0.000
 -0.000   0.000   0.000  -0.807   0.000   0.000   0.239   0.000  -0.110   0.000   0.000   0.000   0.000
 -0.000   0.000   0.000   0.000  -0.807   0.000  -0.000   0.239   0.000  -0.110   0.000  -0.000  -0.000
  0.000  -0.000   0.000   0.413  -0.000  -0.000  -0.110  -0.000   0.103  -0.000  -0.000   0.000   0.000
 -0.000   0.000  -0.000   0.000   0.413   0.000   0.000  -0.110  -0.000   0.103   0.000  -0.000  -0.000
  0.000   0.000  -0.000  -0.000   0.000  -0.000   0.000  -0.000  -0.000   0.000   0.030  -0.000   0.000
 -0.000   0.000   0.413  -0.000   0.000  -0.110   0.000  -0.000   0.000  -0.000  -0.000   0.103   0.000
  0.000   0.000   0.000   0.000   0.000   0.000   0.000   0.000   0.000   0.000   0.000   0.000   0.030
 total augmentation occupancy for first ion, spin component:           2
  0.000  -0.000   0.000   0.000   0.000  -0.000  -0.000   0.000  -0.000   0.000   0.000  -0.000  -0.000
 -0.000   0.000   0.000   0.000   0.000  -0.000   0.000   0.000  -0.000   0.000   0.000   0.000   0.000
  0.000  -0.000   0.000  -0.000  -0.000   0.000  -0.000   0.000  -0.000  -0.000   0.000  -0.000   0.000
  0.000   0.000   0.000   0.000  -0.000   0.000  -0.000  -0.000   0.000   0.000   0.000   0.000   0.000
  0.000   0.000   0.000  -0.000   0.000   0.000   0.000  -0.000   0.000   0.000   0.000  -0.000   0.000
  0.000   0.000   0.000   0.000   0.000   0.000  -0.000  -0.000   0.000   0.000  -0.000   0.000  -0.000
  0.000   0.000  -0.000  -0.000   0.000   0.000   0.000  -0.000   0.000   0.000   0.000  -0.000  -0.000
  0.000   0.000   0.000  -0.000   0.000   0.000  -0.000   0.000   0.000   0.000  -0.000   0.000  -0.000
 -0.000   0.000  -0.000  -0.000  -0.000   0.000   0.000   0.000   0.000  -0.000   0.000   0.000   0.000
  0.000   0.000  -0.000   0.000  -0.000   0.000   0.000   0.000  -0.000   0.000   0.000   0.000   0.000
 -0.000  -0.000   0.000  -0.000   0.000  -0.000   0.000  -0.000   0.000   0.000   0.000   0.000  -0.000
  0.000  -0.000  -0.000   0.000   0.000   0.000  -0.000   0.000  -0.000  -0.000  -0.000   0.000  -0.000
 -0.000  -0.000   0.000  -0.000   0.000   0.000   0.000  -0.000   0.000   0.000  -0.000   0.000   0.000
 total augmentation occupancy for first ion, spin component:           3
  0.000   0.000   0.000  -0.000   0.000   0.000  -0.000   0.000  -0.000   0.000  -0.000   0.000  -0.000
  0.000   0.000   0.000  -0.000  -0.000   0.000  -0.000   0.000   0.000  -0.000  -0.000   0.000  -0.000
  0.000   0.000   0.000   0.000   0.000  -0.000  -0.000  -0.000  -0.000  -0.000  -0.000  -0.000   0.000
  0.000   0.000  -0.000   0.000  -0.000  -0.000   0.000  -0.000  -0.000  -0.000  -0.000   0.000   0.000
  0.000   0.000  -0.000   0.000  -0.000  -0.000   0.000   0.000   0.000   0.000   0.000   0.000   0.000
  0.000   0.000   0.000   0.000   0.000   0.000  -0.000   0.000   0.000   0.000   0.000   0.000  -0.000
 -0.000   0.000   0.000   0.000   0.000   0.000   0.000  -0.000  -0.000   0.000   0.000  -0.000  -0.000
 -0.000   0.000   0.000  -0.000  -0.000   0.000   0.000   0.000  -0.000  -0.000   0.000   0.000  -0.000
  0.000   0.000  -0.000   0.000   0.000   0.000  -0.000  -0.000  -0.000  -0.000   0.000  -0.000  -0.000
  0.000   0.000  -0.000  -0.000   0.000   0.000   0.000   0.000   0.000  -0.000  -0.000   0.000   0.000
  0.000   0.000  -0.000   0.000  -0.000   0.000   0.000   0.000  -0.000   0.000   0.000  -0.000  -0.000
  0.000   0.000   0.000   0.000   0.000   0.000  -0.000   0.000   0.000   0.000  -0.000   0.000   0.000
 -0.000  -0.000   0.000   0.000  -0.000  -0.000  -0.000  -0.000   0.000  -0.000  -0.000   0.000   0.000
 total augmentation occupancy for first ion, spin component:           4
 -0.000   0.000   0.000   0.000   0.000  -0.000   0.000   0.000   0.000   0.000   0.000   0.000  -0.000
  0.000  -0.000  -0.000   0.000   0.000   0.000   0.000   0.000   0.000   0.000   0.000  -0.000   0.000
 -0.000   0.000  -0.000  -0.000   0.000  -0.000   0.000   0.000  -0.000   0.000   0.000  -0.000  -0.000
  0.000   0.000   0.000   0.000   0.000  -0.000  -0.000   0.000   0.000   0.000   0.000  -0.000  -0.000
 -0.000  -0.000  -0.000   0.000   0.000  -0.000  -0.000   0.000  -0.000  -0.000  -0.000  -0.000  -0.000
 -0.000  -0.000   0.000   0.000  -0.000   0.000   0.000   0.000   0.000  -0.000  -0.000  -0.000   0.000
  0.000   0.000   0.000  -0.000   0.000   0.000   0.000  -0.000   0.000   0.000   0.000   0.000   0.000
 -0.000  -0.000   0.000   0.000  -0.000  -0.000  -0.000   0.000   0.000   0.000  -0.000   0.000   0.000
  0.000   0.000   0.000  -0.000  -0.000   0.000   0.000   0.000   0.000  -0.000   0.000   0.000  -0.000
  0.000  -0.000   0.000   0.000   0.000  -0.000   0.000   0.000   0.000   0.000  -0.000  -0.000  -0.000
 -0.000   0.000  -0.000   0.000   0.000  -0.000   0.000  -0.000   0.000   0.000   0.000   0.000   0.000
  0.000   0.000   0.000   0.000  -0.000  -0.000   0.000   0.000  -0.000   0.000  -0.000   0.000   0.000
 -0.000   0.000  -0.000  -0.000  -0.000   0.000   0.000   0.000  -0.000   0.000  -0.000  -0.000   0.000


------------------------ aborting loop because EDIFF is reached ----------------------------------------


    FORLOC:  cpu time    0.0012: real time    0.0012
    FORNL :  cpu time    0.0162: real time    0.0162
    STRESS:  cpu time    0.1337: real time    0.1337
    FORCOR:  cpu time    0.0064: real time    0.0065
    OFIELD:  cpu time    0.0001: real time    0.0001

  FORCE on cell =-STRESS in cart. coord.  units (eV):
  Direction    XX          YY          ZZ          XY          YZ          ZX
  --------------------------------------------------------------------------------------
  Alpha Z     6.67625     6.67625     6.67625
  Ewald     -71.28251   -71.28251   -71.28251     0.00000     0.00000     0.00000
  Hartree     8.53692     8.53692     8.53692     0.00000     0.00000     0.00000
  E(xc)     -31.56732   -31.56732   -31.56732     0.00000     0.00000     0.00000
  Local     -33.46986   -33.46986   -33.46986     0.00007     0.00007     0.00007
  n-local    69.98611    70.60039    66.49629     1.78140    -0.62048     0.28876
  augment    -8.52821    -8.52821    -8.52821    -0.00007    -0.00007    -0.00007
  Kinetic    64.14703    63.62090    58.74864     3.84400    -0.99455     0.64878
  Fock        0.00000     0.00000     0.00000     0.00000     0.00000     0.00000
  -------------------------------------------------------------------------------------
  Total       1.56506     1.56506     1.56506     0.00000    -0.00000     0.00000
  in kB      45.10530    45.10530    45.10530     0.00000    -0.00000     0.00000
  external pressure =       45.11 kB  Pullay stress =        0.00 kB


 VOLUME and BASIS-vectors are now :
 -----------------------------------------------------------------------------
  energy-cutoff  :      300.00
  volume of cell :       55.59
      direct lattice vectors                 reciprocal lattice vectors
     0.000000000  3.029200000  3.029200000    -0.165060082  0.165060082  0.165060082
     3.029200000  0.000000000  3.029200000     0.165060082 -0.165060082  0.165060082
     3.029200000  3.029200000  0.000000000     0.165060082  0.165060082 -0.165060082

  length of vectors
     4.283935723  4.283935723  4.283935723     0.285892448  0.285892448  0.285892448


 FORCES acting on ions:
    Electron-Ion                     Ewald-Force                    Non-Local-Force
 -----------------------------------------------------------------------------------------------
   0.134E-05 0.134E-05 0.134E-05   0.444E-14 0.367E-14 0.481E-14   0.278E-16 0.416E-16 0.416E-16
   0.102E-05 0.102E-05 0.102E-05   -.445E-14 -.376E-14 -.512E-14   0.278E-16 0.486E-16 0.694E-16
 -----------------------------------------------------------------------------------------------
   0.218E-05 0.218E-05 0.218E-05   -.623E-17 -.883E-16 -.308E-15   0.555E-16 0.902E-16 0.111E-15
 
 
 POSITION                                       TOTAL-FORCE (eV/Angst)
 -----------------------------------------------------------------------------------
      0.00000      0.00000      0.00000         0.000000      0.000000     -0.000000
      1.51460      1.51460      1.51460        -0.000000     -0.000000      0.000000
 -----------------------------------------------------------------------------------
    total drift:                                0.000002      0.000002      0.000002


--------------------------------------------------------------------------------------------------------



  FREE ENERGIE OF THE ION-ELECTRON SYSTEM (eV)
  ---------------------------------------------------
  free  energy   TOTEN  =        -7.65531310 eV

  energy  without entropy=       -7.65518250  energy(sigma->0) =       -7.65526957
 


--------------------------------------------------------------------------------------------------------


    POTLOK:  cpu time    0.0162: real time    0.0162


--------------------------------------------------------------------------------------------------------


 writing wavefunctions
     LOOP+:  cpu time   16.0979: real time   16.5543
    4ORBIT:  cpu time    0.0000: real time    0.0000

 Spin-Orbit-Coupling matrix elements

 Ion:    1  E_soc:     -0.0347040
 l=   1
     0.0000000    -0.0056117    -0.0056117
    -0.0056117     0.0000000    -0.0056117
    -0.0056117    -0.0056117     0.0000000
 l=   2
     0.0000000    -0.0000591     0.0000000    -0.0000591    -0.0001132
    -0.0000591     0.0000000    -0.0000849    -0.0000591    -0.0000283
     0.0000000    -0.0000849     0.0000000    -0.0000849     0.0000000
    -0.0000591    -0.0000591    -0.0000849     0.0000000    -0.0000283
    -0.0001132    -0.0000283     0.0000000    -0.0000283     0.0000000
 l=   3
     0.0000000     0.0000000     0.0000000     0.0000000     0.0000000     0.0000000     0.0000000
     0.0000000     0.0000000     0.0000000     0.0000000     0.0000000     0.0000000     0.0000000
     0.0000000     0.0000000     0.0000000     0.0000000     0.0000000     0.0000000     0.0000000
     0.0000000     0.0000000     0.0000000     0.0000000     0.0000000     0.0000000     0.0000000
     0.0000000     0.0000000     0.0000000     0.0000000     0.0000000     0.0000000     0.0000000
     0.0000000     0.0000000     0.0000000     0.0000000     0.0000000     0.0000000     0.0000000
     0.0000000     0.0000000     0.0000000     0.0000000     0.0000000     0.0000000     0.0000000

 Ion:    2  E_soc:     -0.0266609
 l=   1
     0.0000000    -0.0044448    -0.0044448
    -0.0044448     0.0000000    -0.0044448
    -0.0044448    -0.0044448     0.0000000
 l=   2
     0.0000000     0.0000005     0.0000000     0.0000005     0.0000007
     0.0000005     0.0000000     0.0000006     0.0000005     0.0000002
     0.0000000     0.0000006     0.0000000     0.0000006     0.0000000
     0.0000005     0.0000005     0.0000006     0.0000000     0.0000002
     0.0000007     0.0000002     0.0000000     0.0000002     0.0000000
 l=   3
     0.0000000     0.0000000     0.0000000     0.0000000     0.0000000     0.0000000     0.0000000
     0.0000000     0.0000000     0.0000000     0.0000000     0.0000000     0.0000000     0.0000000
     0.0000000     0.0000000     0.0000000     0.0000000     0.0000000     0.0000000     0.0000000
     0.0000000     0.0000000     0.0000000     0.0000000     0.0000000     0.0000000     0.0000000
     0.0000000     0.0000000     0.0000000     0.0000000     0.0000000     0.0000000     0.0000000
     0.0000000     0.0000000     0.0000000     0.0000000     0.0000000     0.0000000     0.0000000
     0.0000000     0.0000000     0.0000000     0.0000000     0.0000000     0.0000000     0.0000000

 total amount of memory used by VASP MPI-rank0    35891. kBytes
=======================================================================

   base      :      30000. kBytes
   nonl-proj :       3096. kBytes
   fftplans  :        138. kBytes
   grid      :       1057. kBytes
   one-center:         64. kBytes
   wavefun   :       1536. kBytes
 
  
  
 General timing and accounting informations for this job:
 ========================================================
  
                  Total CPU time used (sec):       17.921
                            User time (sec):       17.392
                          System time (sec):        0.529
                         Elapsed time (sec):       18.561
  
                   Maximum memory used (kb):       60508.
                   Average memory used (kb):           0.
  
                          Minor page faults:        34533
                          Major page faults:            0
                 Voluntary context switches:         1578
