 vasp.5.4.4.18Apr17-6-g9f103f2a35 (build Sep 10 2021 22:26:18) complex          
  
 executed on             LinuxIFC date 2022.02.17  14:34:57
 running on   54 total cores
 distrk:  each k-point on    9 cores,    6 groups
 distr:  one band on NCORES_PER_BAND=   3 cores,    3 groups


--------------------------------------------------------------------------------------------------------


 INCAR:
 POTCAR:    PAW_PBE In 08Apr2002                  
 POTCAR:    PAW_PBE As 22Sep2009                  

 ----------------------------------------------------------------------------- 
|                                                                             |
|           W    W    AA    RRRRR   N    N  II  N    N   GGGG   !!!           |
|           W    W   A  A   R    R  NN   N  II  NN   N  G    G  !!!           |
|           W    W  A    A  R    R  N N  N  II  N N  N  G       !!!           |
|           W WW W  AAAAAA  RRRRR   N  N N  II  N  N N  G  GGG   !            |
|           WW  WW  A    A  R   R   N   NN  II  N   NN  G    G                |
|           W    W  A    A  R    R  N    N  II  N    N   GGGG   !!!           |
|                                                                             |
|      For optimal performance we recommend to set                            |
|        NCORE= 4 - approx SQRT( number of cores)                             |
|      NCORE specifies how many cores store one orbital (NPAR=cpu/NCORE).     |
|      This setting can  greatly improve the performance of VASP for DFT.     |
|      The default,   NCORE=1            might be grossly inefficient         |
|      on modern multi-core architectures or massively parallel machines.     |
|      Do your own testing !!!!                                               |
|      Unfortunately you need to use the default for GW and RPA calculations. |
|      (for HF NCORE is supported but not extensively tested yet)             |
|                                                                             |
 ----------------------------------------------------------------------------- 


 ----------------------------------------------------------------------------- 
|                                                                             |
|           W    W    AA    RRRRR   N    N  II  N    N   GGGG   !!!           |
|           W    W   A  A   R    R  NN   N  II  NN   N  G    G  !!!           |
|           W    W  A    A  R    R  N N  N  II  N N  N  G       !!!           |
|           W WW W  AAAAAA  RRRRR   N  N N  II  N  N N  G  GGG   !            |
|           WW  WW  A    A  R   R   N   NN  II  N   NN  G    G                |
|           W    W  A    A  R    R  N    N  II  N    N   GGGG   !!!           |
|                                                                             |
|      You have enabled k-point parallelism (KPAR>1).                         |
|      This developmental code was originally  written by Paul Kent at ORNL,  |
|      and carefully double checked in Vienna.                                |
|      GW as well as linear response parallelism added by Martijn Marsman     |
|      and Georg Kresse.                                                      |
|      Carefully verify results versus KPAR=1.                                |
|      Report problems to Paul Kent and Vienna.                               |
|                                                                             |
 ----------------------------------------------------------------------------- 

 POTCAR:    PAW_PBE In 08Apr2002                  
   VRHFIN =In: s2p1                                                             
   LEXCH  = PE                                                                  
   EATOM  =    53.7908 eV,    3.9535 Ry                                         
                                                                                
   TITEL  = PAW_PBE In 08Apr2002                                                
   LULTRA =        F    use ultrasoft PP ?                                      
   IUNSCR =        1    unscreen: 0-lin 1-nonlin 2-no                           
   RPACOR =    2.400    partial core radius                                     
   POMASS =  114.820; ZVAL   =    3.000    mass and valenz                      
   RCORE  =    3.100    outmost cutoff radius                                   
   RWIGS  =    3.170; RWIGS  =    1.677    wigner-seitz radius (au A)           
   ENMAX  =   95.934; ENMIN  =   71.951 eV                                      
   ICORE  =        3    local potential                                         
   LCOR   =        T    correct aug charges                                     
   LPAW   =        T    paw PP                                                  
   EAUG   =  237.125                                                            
   DEXC   =    0.000                                                            
   RMAX   =    3.168    core radius for proj-oper                               
   RAUG   =    1.300    factor for augmentation sphere                          
   RDEP   =    3.187    radius for radial grids                                 
   RDEPT  =    2.711    core radius for aug-charge                              
                                                                                
   Atomic configuration                                                         
   13 entries                                                                   
     n  l   j            E        occ.                                          
     1  0  0.50    -27747.9169   2.0000                                         
     2  0  0.50     -4154.4438   2.0000                                         
     2  1  1.50     -3728.4305   6.0000                                         
     3  0  0.50      -788.3680   2.0000                                         
     3  1  1.50      -648.9215   6.0000                                         
     3  2  2.50      -432.5893  10.0000                                         
     4  0  0.50      -119.6363   2.0000                                         
     4  1  1.50       -78.1086   6.0000                                         
     4  2  2.50       -18.6227  10.0000                                         
     5  0  0.50        -8.2107   2.0000                                         
     5  1  0.50        -2.5185   1.0000                                         
     5  2  2.50        -1.3606   0.0000                                         
     4  3  2.50        -2.7212   0.0000                                         
   Description                                                                  
     l       E           TYP  RCUT    TYP  RCUT                                 
     0     -8.2107306     23  3.100                                             
     0     -6.1485975     23  3.100                                             
     1     -2.5184867     23  3.100                                             
     1      3.2427302     23  3.100                                             
     2     -1.3605826     23  3.100                                             
     3     -1.3605826     23  3.100                                             
  local pseudopotential read in
  partial core-charges read in
  partial kinetic energy density read in
  atomic valenz-charges read in
  non local Contribution for L=           0  read in
    real space projection operators read in
  non local Contribution for L=           0  read in
    real space projection operators read in
  non local Contribution for L=           1  read in
    real space projection operators read in
  non local Contribution for L=           1  read in
    real space projection operators read in
  non local Contribution for L=           2  read in
    real space projection operators read in
    PAW grid and wavefunctions read in
 
   number of l-projection  operators is LMAX  =           5
   number of lm-projection operators is LMMAX =          13
 
 POTCAR:    PAW_PBE As 22Sep2009                  
   VRHFIN =As: s2p3                                                             
   LEXCH  = PE                                                                  
   EATOM  =   170.1867 eV,   12.5084 Ry                                         
                                                                                
   TITEL  = PAW_PBE As 22Sep2009                                                
   LULTRA =        F    use ultrasoft PP ?                                      
   IUNSCR =        1    unscreen: 0-lin 1-nonlin 2-no                           
   RPACOR =    1.900    partial core radius                                     
   POMASS =   74.922; ZVAL   =    5.000    mass and valenz                      
   RCORE  =    2.100    outmost cutoff radius                                   
   RWIGS  =    2.300; RWIGS  =    1.217    wigner-seitz radius (au A)           
   ENMAX  =  208.702; ENMIN  =  156.526 eV                                      
   ICORE  =        3    local potential                                         
   LCOR   =        T    correct aug charges                                     
   LPAW   =        T    paw PP                                                  
   EAUG   =  462.758                                                            
   DEXC   =    0.000                                                            
   RMAX   =    2.144    core radius for proj-oper                               
   RAUG   =    1.300    factor for augmentation sphere                          
   RDEP   =    2.140    radius for radial grids                                 
   RDEPT  =    1.956    core radius for aug-charge                              
                                                                                
   Atomic configuration                                                         
   10 entries                                                                   
     n  l   j            E        occ.                                          
     1  0  0.50    -11718.0418   2.0000                                         
     2  0  0.50     -1486.5454   2.0000                                         
     2  1  1.50     -1303.3889   6.0000                                         
     3  0  0.50      -190.2849   2.0000                                         
     3  1  1.50      -133.6555   6.0000                                         
     3  2  2.50       -40.6443  10.0000                                         
     4  0  0.50       -14.4936   2.0000                                         
     4  1  0.50        -5.1947   3.0000                                         
     4  2  1.50        -5.4423   0.0000                                         
     4  3  2.50        -5.4423   0.0000                                         
   Description                                                                  
     l       E           TYP  RCUT    TYP  RCUT                                 
     0    -14.4935570     23  2.100                                             
     0    -11.9212055     23  2.100                                             
     1     -5.1947127     23  2.100                                             
     1     27.2116520     23  2.100                                             
     2     -5.4423304     23  2.100                                             
     3     -1.3605826      7  2.100                                             
  local pseudopotential read in
  partial core-charges read in
  partial kinetic energy density read in
  atomic valenz-charges read in
  non local Contribution for L=           0  read in
    real space projection operators read in
  non local Contribution for L=           0  read in
    real space projection operators read in
  non local Contribution for L=           1  read in
    real space projection operators read in
  non local Contribution for L=           1  read in
    real space projection operators read in
  non local Contribution for L=           2  read in
    real space projection operators read in
    PAW grid and wavefunctions read in
 
   number of l-projection  operators is LMAX  =           5
   number of lm-projection operators is LMMAX =          13
 
  PAW_PBE In 08Apr2002                  :
 energy of atom  1       EATOM=  -53.7908
 kinetic energy error for atom=    0.0000 (will be added to EATOM!!)
  PAW_PBE As 22Sep2009                  :
 energy of atom  2       EATOM= -170.1867
 kinetic energy error for atom=    0.0013 (will be added to EATOM!!)
 
 
 POSCAR: In As                                   
  positions in direct lattice
  No initial velocities read in
 exchange correlation table for  LEXCH =        8
   RHO(1)=    0.500       N(1)  =     2000
   RHO(2)=  100.500       N(2)  =     4000
 


--------------------------------------------------------------------------------------------------------


 ion  position               nearest neighbor table
   1  0.000  0.000  0.000-   2 2.62   2 2.62   2 2.62   2 2.62
   2  0.750  0.750  0.750-   1 2.62   1 2.62   1 2.62   1 2.62
 
  LATTYP: Found a face centered cubic cell.
 ALAT       =     6.0584000000
  
  Lattice vectors:
  
 A1 = (   0.0000000000,   3.0292000000,   3.0292000000)
 A2 = (   3.0292000000,   0.0000000000,   3.0292000000)
 A3 = (   3.0292000000,   3.0292000000,   0.0000000000)


Analysis of symmetry for initial positions (statically):
=====================================================================
 Subroutine PRICEL returns:
 Original cell was already a primitive cell.
 

 Routine SETGRP: Setting up the symmetry group for a 
 face centered cubic supercell.


 Subroutine GETGRP returns: Found 24 space group operations
 (whereof 24 operations were pure point group operations)
 out of a pool of 48 trial point group operations.


The static configuration has the point symmetry T_d .


Analysis of symmetry for dynamics (positions and initial velocities):
=====================================================================
 Subroutine PRICEL returns:
 Original cell was already a primitive cell.
 

 Routine SETGRP: Setting up the symmetry group for a 
 face centered cubic supercell.


 Subroutine GETGRP returns: Found 24 space group operations
 (whereof 24 operations were pure point group operations)
 out of a pool of 48 trial point group operations.


The dynamic configuration has the point symmetry T_d .


Analysis of structural, dynamic, and magnetic symmetry:
=====================================================================
 Subroutine PRICEL returns:
 Original cell was already a primitive cell.
 

 Routine SETGRP: Setting up the symmetry group for a 
 face centered cubic supercell.


 Subroutine GETGRP returns: Found 24 space group operations
 (whereof 24 operations were pure point group operations)
 out of a pool of 48 trial point group operations.


The (compounded) configuration has the point symmetry T_d .


 Subroutine INISYM returns: Found 24 space group operations
 (whereof 24 operations are pure point group operations),
 and found     1 'primitive' translations

 
 
 KPOINTS: KPOINTS created by Atomic Simulation Env

Automatic generation of k-mesh.
Space group operators:
 irot       det(A)        alpha          n_x          n_y          n_z        tau_x        tau_y        tau_z
    1     1.000000     0.000000     1.000000     0.000000     0.000000     0.000000     0.000000     0.000000
    2     1.000000   120.000000    -0.577350    -0.577350    -0.577350     0.000000     0.000000     0.000000
    3     1.000000   120.000000     0.577350     0.577350     0.577350     0.000000     0.000000     0.000000
    4    -1.000000    90.000000     0.000000     0.000000    -1.000000     0.000000     0.000000     0.000000
    5    -1.000000   180.000000     0.000000     0.707107     0.707107     0.000000     0.000000     0.000000
    6    -1.000000    90.000000     0.000000     1.000000     0.000000     0.000000     0.000000     0.000000
    7     1.000000   180.000000     0.000000     0.000000     1.000000     0.000000     0.000000     0.000000
    8     1.000000   120.000000    -0.577350     0.577350     0.577350     0.000000     0.000000     0.000000
    9     1.000000   120.000000    -0.577350     0.577350    -0.577350     0.000000     0.000000     0.000000
   10    -1.000000    90.000000     0.000000     0.000000     1.000000     0.000000     0.000000     0.000000
   11    -1.000000    90.000000    -1.000000     0.000000     0.000000     0.000000     0.000000     0.000000
   12    -1.000000   180.000000     0.707107     0.000000     0.707107     0.000000     0.000000     0.000000
   13     1.000000   120.000000     0.577350    -0.577350     0.577350     0.000000     0.000000     0.000000
   14     1.000000   120.000000    -0.577350    -0.577350     0.577350     0.000000     0.000000     0.000000
   15     1.000000   180.000000     1.000000     0.000000     0.000000     0.000000     0.000000     0.000000
   16    -1.000000    90.000000     0.000000    -1.000000     0.000000     0.000000     0.000000     0.000000
   17    -1.000000   180.000000     0.707107     0.707107     0.000000     0.000000     0.000000     0.000000
   18    -1.000000    90.000000     1.000000     0.000000     0.000000     0.000000     0.000000     0.000000
   19     1.000000   120.000000     0.577350    -0.577350    -0.577350     0.000000     0.000000     0.000000
   20     1.000000   180.000000     0.000000     1.000000     0.000000     0.000000     0.000000     0.000000
   21     1.000000   120.000000     0.577350     0.577350    -0.577350     0.000000     0.000000     0.000000
   22    -1.000000   180.000000     0.000000    -0.707107     0.707107     0.000000     0.000000     0.000000
   23    -1.000000   180.000000     0.707107    -0.707107     0.000000     0.000000     0.000000     0.000000
   24    -1.000000   180.000000     0.707107     0.000000    -0.707107     0.000000     0.000000     0.000000
 
 Subroutine IBZKPT returns following result:
 ===========================================
 
 Found     30 irreducible k-points:
 
 Following reciprocal coordinates:
            Coordinates               Weight
  0.000000  0.000000  0.000000      1.000000
  0.142857  0.000000  0.000000      4.000000
  0.285714  0.000000  0.000000      4.000000
  0.428571  0.000000  0.000000      4.000000
 -0.428571  0.000000  0.000000      4.000000
 -0.285714  0.000000  0.000000      4.000000
 -0.142857  0.000000  0.000000      4.000000
  0.142857  0.142857  0.000000      6.000000
  0.285714  0.142857  0.000000     12.000000
  0.428571  0.142857  0.000000     12.000000
 -0.428571  0.142857  0.000000     12.000000
 -0.285714  0.142857  0.000000     12.000000
 -0.142857  0.142857  0.000000     12.000000
  0.285714  0.285714  0.000000      6.000000
  0.428571  0.285714  0.000000     12.000000
 -0.428571  0.285714  0.000000     12.000000
 -0.285714  0.285714  0.000000     12.000000
 -0.142857  0.285714  0.000000     12.000000
  0.428571  0.428571  0.000000      6.000000
 -0.428571  0.428571  0.000000     12.000000
 -0.285714  0.428571  0.000000     12.000000
 -0.142857  0.428571  0.000000     12.000000
 -0.285714 -0.428571  0.000000     12.000000
 -0.142857 -0.428571  0.000000     12.000000
 -0.142857 -0.285714  0.000000     12.000000
  0.428571  0.285714  0.142857     24.000000
 -0.428571  0.285714  0.142857     24.000000
 -0.285714  0.285714  0.142857     24.000000
 -0.428571  0.428571  0.142857     24.000000
 -0.285714  0.428571  0.142857     24.000000
 
 Following cartesian coordinates:
            Coordinates               Weight
  0.000000  0.000000  0.000000      1.000000
 -0.023580  0.023580  0.023580      4.000000
 -0.047160  0.047160  0.047160      4.000000
 -0.070740  0.070740  0.070740      4.000000
  0.070740 -0.070740 -0.070740      4.000000
  0.047160 -0.047160 -0.047160      4.000000
  0.023580 -0.023580 -0.023580      4.000000
  0.000000  0.000000  0.047160      6.000000
 -0.023580  0.023580  0.070740     12.000000
 -0.047160  0.047160  0.094320     12.000000
  0.094320 -0.094320 -0.047160     12.000000
  0.070740 -0.070740 -0.023580     12.000000
  0.047160 -0.047160  0.000000     12.000000
  0.000000  0.000000  0.094320      6.000000
 -0.023580  0.023580  0.117900     12.000000
  0.117900 -0.117900 -0.023580     12.000000
  0.094320 -0.094320  0.000000     12.000000
  0.070740 -0.070740  0.023580     12.000000
  0.000000  0.000000  0.141480      6.000000
  0.141480 -0.141480  0.000000     12.000000
  0.117900 -0.117900  0.023580     12.000000
  0.094320 -0.094320  0.047160     12.000000
 -0.023580  0.023580 -0.117900     12.000000
 -0.047160  0.047160 -0.094320     12.000000
 -0.023580  0.023580 -0.070740     12.000000
 -0.000000  0.047160  0.094320     24.000000
  0.141480 -0.094320 -0.047160     24.000000
  0.117900 -0.070740 -0.023580     24.000000
  0.165060 -0.117900 -0.023580     24.000000
  0.141480 -0.094320 -0.000000     24.000000
 


--------------------------------------------------------------------------------------------------------




 Dimension of arrays:
   k-points           NKPTS =     30   k-points in BZ     NKDIM =     30   number of bands    NBANDS=     21
   number of dos      NEDOS =    301   number of ions     NIONS =      2
   non local maximal  LDIM  =      5   non local SUM 2l+1 LMDIM =     13
   total plane-waves  NPLWV =  13824
   max r-space proj   IRMAX =      1   max aug-charges    IRDMAX=  28249
   dimension x,y,z NGX =    24 NGY =   24 NGZ =   24
   dimension x,y,z NGXF=    48 NGYF=   48 NGZF=   48
   support grid    NGXF=    48 NGYF=   48 NGZF=   48
   ions per type =               1   1
   NGX,Y,Z   is equivalent  to a cutoff of   9.31,  9.31,  9.31 a.u.
   NGXF,Y,Z  is equivalent  to a cutoff of  18.63, 18.63, 18.63 a.u.

 SYSTEM =  unknown system                          
 POSCAR =  In As                                   

 Startparameter for this run:
   NWRITE =      2    write-flag & timer
   PREC   = n         normal or accurate (medium, high low for compatibility)
   ISTART =      0    job   : 0-new  1-cont  2-samecut
   ICHARG =      2    charge: 1-file 2-atom 10-const
   ISPIN  =      1    spin polarized calculation?
   LNONCOLLINEAR =      T non collinear calculations
   LSORBIT =      T    spin-orbit coupling
   INIWAV =      1    electr: 0-lowe 1-rand  2-diag
   LASPH  =      F    aspherical Exc in radial PAW
   METAGGA=      F    non-selfconsistent MetaGGA calc.

 Electronic Relaxation 1
   ENCUT  =  400.0 eV  29.40 Ry    5.42 a.u.   6.99  6.99  6.99*2*pi/ulx,y,z
   ENINI  =  400.0     initial cutoff
   ENAUG  =  462.8 eV  augmentation charge cutoff
   NELM   =     60;   NELMIN=  2; NELMDL= -5     # of ELM steps 
   EDIFF  = 0.1E-04   stopping-criterion for ELM
   LREAL  =      F    real-space projection
   NLSPLINE    = F    spline interpolate recip. space projectors
   LCOMPAT=      F    compatible to vasp.4.4
   GGA_COMPAT  = T    GGA compatible to vasp.4.4-vasp.4.6
   LMAXPAW     = -100 max onsite density
   LMAXMIX     =    2 max onsite mixed and CHGCAR
   VOSKOWN=      0    Vosko Wilk Nusair interpolation
   ROPT   =    0.00000   0.00000
 Ionic relaxation
   EDIFFG = 0.1E-03   stopping-criterion for IOM
   NSW    =      0    number of steps for IOM
   NBLOCK =      1;   KBLOCK =      1    inner block; outer block 
   IBRION =     -1    ionic relax: 0-MD 1-quasi-New 2-CG
   NFREE  =      0    steps in history (QN), initial steepest desc. (CG)
   ISIF   =      2    stress and relaxation
   IWAVPR =     10    prediction:  0-non 1-charg 2-wave 3-comb
   ISYM   =      2    0-nonsym 1-usesym 2-fastsym
   LCORR  =      T    Harris-Foulkes like correction to forces

   POTIM  = 0.5000    time-step for ionic-motion
   TEIN   =    0.0    initial temperature
   TEBEG  =    0.0;   TEEND  =   0.0 temperature during run
   SMASS  =  -3.00    Nose mass-parameter (am)
   estimated Nose-frequenzy (Omega)   =  0.10E-29 period in steps =****** mass=  -0.419E-27a.u.
   SCALEE = 1.0000    scale energy and forces
   NPACO  =    256;   APACO  = 16.0  distance and # of slots for P.C.
   PSTRESS=    0.0 pullay stress

  Mass of Ions in am
   POMASS = 114.82 74.92
  Ionic Valenz
   ZVAL   =   3.00  5.00
  Atomic Wigner-Seitz radii
   RWIGS  =  -1.00 -1.00
  virtual crystal weights 
   VCA    =   1.00  1.00
   NELECT =       8.0000    total number of electrons
   NUPDOWN=      -1.0000    fix difference up-down

 DOS related values:
   EMIN   =  10.00;   EMAX   =-10.00  energy-range for DOS
   EFERMI =   0.00
   ISMEAR =     1;   SIGMA  =   0.05  broadening in eV -4-tet -1-fermi 0-gaus

 Electronic relaxation 2 (details)
   IALGO  =     53    algorithm
   LDIAG  =      T    sub-space diagonalisation (order eigenvalues)
   LSUBROT=      F    optimize rotation matrix (better conditioning)
   TURBO    =      0    0=normal 1=particle mesh
   IRESTART =      0    0=no restart 2=restart with 2 vectors
   NREBOOT  =      0    no. of reboots
   NMIN     =      0    reboot dimension
   EREF     =   0.00    reference energy to select bands
   IMIX   =      4    mixing-type and parameters
     AMIX     =   0.40;   BMIX     =  3.00
     AMIX_MAG =   1.60;   BMIX_MAG =  3.00
     AMIN     =   0.01
     WC   =   100.;   INIMIX=   1;  MIXPRE=   1;  MAXMIX= -45

 Intra band minimization:
   WEIMIN = 0.0000     energy-eigenvalue tresh-hold
   EBREAK =  0.12E-06  absolut break condition
   DEPER  =   0.30     relativ break condition  

   TIME   =   0.40     timestep for ELM

  volume/ion in A,a.u.               =      27.80       187.58
  Fermi-wavevector in a.u.,A,eV,Ry     =   0.857894  1.621184 10.013641  0.735982
  Thomas-Fermi vector in A             =   1.975016
 
 Write flags
   LWAVE        =      T    write WAVECAR
   LDOWNSAMPLE  =      F    k-point downsampling of WAVECAR
   LCHARG       =      T    write CHGCAR
   LVTOT        =      F    write LOCPOT, total local potential
   LVHAR        =      F    write LOCPOT, Hartree potential only
   LELF         =      F    write electronic localiz. function (ELF)
   LORBIT       =      0    0 simple, 1 ext, 2 COOP (PROOUT), +10 PAW based schemes


 Dipole corrections
   LMONO  =      F    monopole corrections only (constant potential shift)
   LDIPOL =      F    correct potential (dipole corrections)
   IDIPOL =      0    1-x, 2-y, 3-z, 4-all directions 
   EPSILON=  1.0000000 bulk dielectric constant

 Exchange correlation treatment:
   GGA     =    PE    GGA type
   LEXCH   =     8    internal setting for exchange type
   VOSKOWN=      0    Vosko Wilk Nusair interpolation
   LHFCALC =     F    Hartree Fock is set to
   LHFONE  =     F    Hartree Fock one center treatment
   AEXX    =    0.0000 exact exchange contribution

 Linear response parameters
   LEPSILON=     F    determine dielectric tensor
   LRPA    =     F    only Hartree local field effects (RPA)
   LNABLA  =     F    use nabla operator in PAW spheres
   LVEL    =     F    velocity operator in full k-point grid
   LINTERFAST=   F  fast interpolation
   KINTER  =     0    interpolate to denser k-point grid
   CSHIFT  =0.1000    complex shift for real part using Kramers Kronig
   OMEGAMAX=  -1.0    maximum frequency
   DEG_THRESHOLD= 0.2000000E-02 threshold for treating states as degnerate
   RTIME   =   -0.100 relaxation time in fs
  (WPLASMAI=    0.000 imaginary part of plasma frequency in eV, 0.658/RTIME)
   DFIELD  = 0.0000000 0.0000000 0.0000000 field for delta impulse in time
 
 Orbital magnetization related:
   ORBITALMAG=     F  switch on orbital magnetization
   LCHIMAG   =     F  perturbation theory with respect to B field
   DQ        =  0.001000  dq finite difference perturbation B field
   LLRAUG    =     F  two centre corrections for induced B field



--------------------------------------------------------------------------------------------------------


 Static calculation
 charge density and potential will be updated during run
 non collinear spin polarized calculation
 Conjugate gradient for all bands (Freysoldt, et al. PRB 79, 241103 (2009))
 perform sub-space diagonalisation
    before iterative eigenvector-optimisation
 modified Broyden-mixing scheme, WC =      100.0
 initial mixing is a Kerker type mixing with AMIX =  0.4000 and BMIX =      3.0000
 Hartree-type preconditioning will be used
 using additional bands           17
 reciprocal scheme for non local part
 use partial core corrections
 no Harris-corrections to forces 
 use gradient corrections 
 use of overlap-Matrix (Vanderbilt PP)
 Methfessel and Paxton  Order N= 1 SIGMA  =   0.05


--------------------------------------------------------------------------------------------------------


  energy-cutoff  :      400.00
  volume of cell :       55.59
      direct lattice vectors                 reciprocal lattice vectors
     0.000000000  3.029200000  3.029200000    -0.165060082  0.165060082  0.165060082
     3.029200000  0.000000000  3.029200000     0.165060082 -0.165060082  0.165060082
     3.029200000  3.029200000  0.000000000     0.165060082  0.165060082 -0.165060082

  length of vectors
     4.283935723  4.283935723  4.283935723     0.285892448  0.285892448  0.285892448


 
 k-points in units of 2pi/SCALE and weight: KPOINTS created by Atomic Simulation Env
   0.00000000  0.00000000  0.00000000       0.003
  -0.02358001  0.02358001  0.02358001       0.012
  -0.04716002  0.04716002  0.04716002       0.012
  -0.07074004  0.07074004  0.07074004       0.012
   0.07074004 -0.07074004 -0.07074004       0.012
   0.04716002 -0.04716002 -0.04716002       0.012
   0.02358001 -0.02358001 -0.02358001       0.012
   0.00000000  0.00000000  0.04716002       0.017
  -0.02358001  0.02358001  0.07074004       0.035
  -0.04716002  0.04716002  0.09432005       0.035
   0.09432005 -0.09432005 -0.04716002       0.035
   0.07074004 -0.07074004 -0.02358001       0.035
   0.04716002 -0.04716002  0.00000000       0.035
   0.00000000  0.00000000  0.09432005       0.017
  -0.02358001  0.02358001  0.11790006       0.035
   0.11790006 -0.11790006 -0.02358001       0.035
   0.09432005 -0.09432005  0.00000000       0.035
   0.07074004 -0.07074004  0.02358001       0.035
   0.00000000  0.00000000  0.14148007       0.017
   0.14148007 -0.14148007  0.00000000       0.035
   0.11790006 -0.11790006  0.02358001       0.035
   0.09432005 -0.09432005  0.04716002       0.035
  -0.02358001  0.02358001 -0.11790006       0.035
  -0.04716002  0.04716002 -0.09432005       0.035
  -0.02358001  0.02358001 -0.07074004       0.035
  -0.00000000  0.04716002  0.09432005       0.070
   0.14148007 -0.09432005 -0.04716002       0.070
   0.11790006 -0.07074004 -0.02358001       0.070
   0.16506008 -0.11790006 -0.02358001       0.070
   0.14148007 -0.09432005 -0.00000000       0.070
 
 k-points in reciprocal lattice and weights: KPOINTS created by Atomic Simulation Env
   0.00000000  0.00000000  0.00000000       0.003
   0.14285714  0.00000000  0.00000000       0.012
   0.28571429  0.00000000  0.00000000       0.012
   0.42857143  0.00000000  0.00000000       0.012
  -0.42857143  0.00000000  0.00000000       0.012
  -0.28571429  0.00000000  0.00000000       0.012
  -0.14285714  0.00000000  0.00000000       0.012
   0.14285714  0.14285714  0.00000000       0.017
   0.28571429  0.14285714  0.00000000       0.035
   0.42857143  0.14285714  0.00000000       0.035
  -0.42857143  0.14285714  0.00000000       0.035
  -0.28571429  0.14285714  0.00000000       0.035
  -0.14285714  0.14285714  0.00000000       0.035
   0.28571429  0.28571429  0.00000000       0.017
   0.42857143  0.28571429  0.00000000       0.035
  -0.42857143  0.28571429  0.00000000       0.035
  -0.28571429  0.28571429  0.00000000       0.035
  -0.14285714  0.28571429  0.00000000       0.035
   0.42857143  0.42857143  0.00000000       0.017
  -0.42857143  0.42857143  0.00000000       0.035
  -0.28571429  0.42857143  0.00000000       0.035
  -0.14285714  0.42857143  0.00000000       0.035
  -0.28571429 -0.42857143  0.00000000       0.035
  -0.14285714 -0.42857143  0.00000000       0.035
  -0.14285714 -0.28571429  0.00000000       0.035
   0.42857143  0.28571429  0.14285714       0.070
  -0.42857143  0.28571429  0.14285714       0.070
  -0.28571429  0.28571429  0.14285714       0.070
  -0.42857143  0.42857143  0.14285714       0.070
  -0.28571429  0.42857143  0.14285714       0.070
 
 position of ions in fractional coordinates (direct lattice) 
   0.00000000  0.00000000  0.00000000
   0.75000000  0.75000000  0.75000000
 
 position of ions in cartesian coordinates  (Angst):
   0.00000000  0.00000000  0.00000000
   4.54380000  4.54380000  4.54380000
 
 Euler angles ALPHA=     0.0000000  BETA=     0.0000000

 transformation matrix from SAXIS to cartesian coordinates
 ---------------------------------------------------------
     1.0000000 m_x     0.0000000 m_y     0.0000000 m_z
     0.0000000 m_x     1.0000000 m_y     0.0000000 m_z
     0.0000000 m_x     0.0000000 m_y     1.0000000 m_z

 transformation matrix from cartesian coordinates to SAXIS
 ---------------------------------------------------------
     1.0000000 m_x     0.0000000 m_y     0.0000000 m_z
     0.0000000 m_x     1.0000000 m_y     0.0000000 m_z
     0.0000000 m_x     0.0000000 m_y     1.0000000 m_z




--------------------------------------------------------------------------------------------------------


 k-point  1 :   0.0000 0.0000 0.0000  plane waves:    1930
 k-point  2 :   0.1429 0.0000 0.0000  plane waves:    1978
 k-point  3 :   0.2857 0.0000 0.0000  plane waves:    2020
 k-point  4 :   0.4286 0.0000 0.0000  plane waves:    2034
 k-point  5 :  -0.4286 0.0000 0.0000  plane waves:    2034
 k-point  6 :  -0.2857 0.0000 0.0000  plane waves:    2020
 k-point  7 :  -0.1429 0.0000 0.0000  plane waves:    1978
 k-point  8 :   0.1429 0.1429 0.0000  plane waves:    1988
 k-point  9 :   0.2857 0.1429 0.0000  plane waves:    2000
 k-point 10 :   0.4286 0.1429 0.0000  plane waves:    2020
 k-point 11 :  -0.4286 0.1429 0.0000  plane waves:    2012
 k-point 12 :  -0.2857 0.1429 0.0000  plane waves:    2036
 k-point 13 :  -0.1429 0.1429 0.0000  plane waves:    1990
 k-point 14 :   0.2857 0.2857 0.0000  plane waves:    2036
 k-point 15 :   0.4286 0.2857 0.0000  plane waves:    2024
 k-point 16 :  -0.4286 0.2857 0.0000  plane waves:    2022
 k-point 17 :  -0.2857 0.2857 0.0000  plane waves:    2022
 k-point 18 :  -0.1429 0.2857 0.0000  plane waves:    2036
 k-point 19 :   0.4286 0.4286 0.0000  plane waves:    2012
 k-point 20 :  -0.4286 0.4286 0.0000  plane waves:    2026
 k-point 21 :  -0.2857 0.4286 0.0000  plane waves:    2022
 k-point 22 :  -0.1429 0.4286 0.0000  plane waves:    2012
 k-point 23 :  -0.2857-0.4286 0.0000  plane waves:    2024
 k-point 24 :  -0.1429-0.4286 0.0000  plane waves:    2020
 k-point 25 :  -0.1429-0.2857 0.0000  plane waves:    2000
 k-point 26 :   0.4286 0.2857 0.1429  plane waves:    2022
 k-point 27 :  -0.4286 0.2857 0.1429  plane waves:    2026
 k-point 28 :  -0.2857 0.2857 0.1429  plane waves:    2026
 k-point 29 :  -0.4286 0.4286 0.1429  plane waves:    2038
 k-point 30 :  -0.2857 0.4286 0.1429  plane waves:    2028

 maximum and minimum number of plane-waves per node :       704      622

 maximum number of plane-waves:      2038
 maximum index in each direction: 
   IXMAX=    7   IYMAX=    7   IZMAX=    6
   IXMIN=   -7   IYMIN=   -7   IZMIN=   -7


 parallel 3D FFT for wavefunctions:
    minimum data exchange during FFTs selected (reduces bandwidth)
 parallel 3D FFT for charge:
    minimum data exchange during FFTs selected (reduces bandwidth)


 total amount of memory used by VASP MPI-rank0    44646. kBytes
=======================================================================

   base      :      30000. kBytes
   nonl-proj :       2220. kBytes
   fftplans  :       1050. kBytes
   grid      :       3907. kBytes
   one-center:         32. kBytes
   wavefun   :       7437. kBytes
 
     INWAV:  cpu time    0.0000: real time    0.0004
 Broyden mixing: mesh for mixing (old mesh)
   NGX = 13   NGY = 13   NGZ = 13
  (NGX  = 48   NGY  = 48   NGZ  = 48)
  gives a total of   2197 points

 initial charge density was supplied:
 charge density of overlapping atoms calculated
 number of electron       8.0000000 magnetization       0.0000000      0.0000000      0.0000000
 keeping initial charge density in first step


--------------------------------------------------------------------------------------------------------


 Maximum index for augmentation-charges         3635 (set IRDMAX)


--------------------------------------------------------------------------------------------------------


 First call to EWALD:  gamma=   0.464
 Maximum number of real-space cells 3x 3x 3
 Maximum number of reciprocal cells 3x 3x 3

    FEWALD:  cpu time    0.0015: real time    0.0015


--------------------------------------- Iteration      1(   1)  ---------------------------------------


    POTLOK:  cpu time    0.0543: real time    0.0544
    SETDIJ:  cpu time    0.0140: real time    0.0140
    TRIAL :  cpu time    0.1520: real time    0.1524
    CORREC:  cpu time    0.0008: real time    0.0008
    --------------------------------------------
      LOOP:  cpu time    0.2273: real time    0.2289

 eigenvalue-minimisations  :  1719
 total energy-change (2. order) : 0.3579227E+02  (-0.2697211E+03)
 number of electron       8.0000000 magnetization       0.0000000      0.0000000      0.0000000
 augmentation part        8.0000000 magnetization       0.0000000      0.0000000      0.0000000

 Free energy of the ion-electron system (eV)
  ---------------------------------------------------
  alpha Z        PSCENC =         6.67624893
  Ewald energy   TEWEN  =      -213.84743004
  -Hartree energ DENC   =       -21.29595069
  -exchange      EXHF   =         0.00000000
  -V(xc)+E(xc)   XCENC  =       -67.69638834
  PAW double counting   =       241.28716127     -160.47085023
  entropy T*S    EENTRO =         0.00009680
  eigenvalues    EBANDS =        27.16316500
  atomic energy  EATOM  =       223.97621261
  ---------------------------------------------------
  free energy    TOTEN  =        35.79226531 eV

  energy without entropy =       35.79216851  energy(sigma->0) =       35.79223305


--------------------------------------------------------------------------------------------------------




--------------------------------------- Iteration      1(   2)  ---------------------------------------


    TRIAL :  cpu time    0.1960: real time    0.1961
    CORREC:  cpu time    0.0007: real time    0.0007
    --------------------------------------------
      LOOP:  cpu time    0.1983: real time    0.2009

 eigenvalue-minimisations  :  2520
 total energy-change (2. order) :-0.3693752E+02  (-0.3317566E+02)
 number of electron       8.0000000 magnetization       0.0000000      0.0000000      0.0000000
 augmentation part        8.0000000 magnetization       0.0000000      0.0000000      0.0000000

 Free energy of the ion-electron system (eV)
  ---------------------------------------------------
  alpha Z        PSCENC =         6.67624893
  Ewald energy   TEWEN  =      -213.84743004
  -Hartree energ DENC   =       -21.29595069
  -exchange      EXHF   =         0.00000000
  -V(xc)+E(xc)   XCENC  =       -67.69638834
  PAW double counting   =       241.28716127     -160.47085023
  entropy T*S    EENTRO =         0.00005494
  eigenvalues    EBANDS =        -9.77431417
  atomic energy  EATOM  =       223.97621261
  ---------------------------------------------------
  free energy    TOTEN  =        -1.14525572 eV

  energy without entropy =       -1.14531066  energy(sigma->0) =       -1.14527403


--------------------------------------------------------------------------------------------------------




--------------------------------------- Iteration      1(   3)  ---------------------------------------


    TRIAL :  cpu time    0.1990: real time    0.1990
    CORREC:  cpu time    0.0007: real time    0.0007
    --------------------------------------------
      LOOP:  cpu time    0.1999: real time    0.2000

 eigenvalue-minimisations  :  2520
 total energy-change (2. order) :-0.5752016E+01  (-0.5331900E+01)
 number of electron       8.0000000 magnetization       0.0000000      0.0000000      0.0000000
 augmentation part        8.0000000 magnetization       0.0000000      0.0000000      0.0000000

 Free energy of the ion-electron system (eV)
  ---------------------------------------------------
  alpha Z        PSCENC =         6.67624893
  Ewald energy   TEWEN  =      -213.84743004
  -Hartree energ DENC   =       -21.29595069
  -exchange      EXHF   =         0.00000000
  -V(xc)+E(xc)   XCENC  =       -67.69638834
  PAW double counting   =       241.28716127     -160.47085023
  entropy T*S    EENTRO =         0.00002756
  eigenvalues    EBANDS =       -15.52630265
  atomic energy  EATOM  =       223.97621261
  ---------------------------------------------------
  free energy    TOTEN  =        -6.89727158 eV

  energy without entropy =       -6.89729913  energy(sigma->0) =       -6.89728076


--------------------------------------------------------------------------------------------------------




--------------------------------------- Iteration      1(   4)  ---------------------------------------


    TRIAL :  cpu time    0.1951: real time    0.1954
    CORREC:  cpu time    0.0007: real time    0.0007
    --------------------------------------------
      LOOP:  cpu time    0.1960: real time    0.1963

 eigenvalue-minimisations  :  2520
 total energy-change (2. order) :-0.8766956E+00  (-0.8334480E+00)
 number of electron       8.0000000 magnetization       0.0000000      0.0000000      0.0000000
 augmentation part        8.0000000 magnetization       0.0000000      0.0000000      0.0000000

 Free energy of the ion-electron system (eV)
  ---------------------------------------------------
  alpha Z        PSCENC =         6.67624893
  Ewald energy   TEWEN  =      -213.84743004
  -Hartree energ DENC   =       -21.29595069
  -exchange      EXHF   =         0.00000000
  -V(xc)+E(xc)   XCENC  =       -67.69638834
  PAW double counting   =       241.28716127     -160.47085023
  entropy T*S    EENTRO =         0.00002404
  eigenvalues    EBANDS =       -16.40299470
  atomic energy  EATOM  =       223.97621261
  ---------------------------------------------------
  free energy    TOTEN  =        -7.77396715 eV

  energy without entropy =       -7.77399118  energy(sigma->0) =       -7.77397516


--------------------------------------------------------------------------------------------------------




--------------------------------------- Iteration      1(   5)  ---------------------------------------


    TRIAL :  cpu time    0.2018: real time    0.2018
    CORREC:  cpu time    0.0011: real time    0.0011
    CHARGE:  cpu time    0.0357: real time    0.0357
    --------------------------------------------
      LOOP:  cpu time    0.2389: real time    0.2389

 eigenvalue-minimisations  :  2520
 total energy-change (2. order) :-0.1522997E+00  (-0.1462235E+00)
 number of electron       8.0000004 magnetization      -0.0000000      0.0000000      0.0000000
 augmentation part       -1.4682712 magnetization      -0.0000000      0.0000000      0.0000000

 Free energy of the ion-electron system (eV)
  ---------------------------------------------------
  alpha Z        PSCENC =         6.67624893
  Ewald energy   TEWEN  =      -213.84743004
  -Hartree energ DENC   =       -21.29595069
  -exchange      EXHF   =         0.00000000
  -V(xc)+E(xc)   XCENC  =       -67.69638834
  PAW double counting   =       241.28716127     -160.47085023
  entropy T*S    EENTRO =        -0.00001385
  eigenvalues    EBANDS =       -16.55525646
  atomic energy  EATOM  =       223.97621261
  ---------------------------------------------------
  free energy    TOTEN  =        -7.92626680 eV

  energy without entropy =       -7.92625295  energy(sigma->0) =       -7.92626218


--------------------------------------------------------------------------------------------------------




--------------------------------------- Iteration      1(   6)  ---------------------------------------


    POTLOK:  cpu time    0.0521: real time    0.0521
    SETDIJ:  cpu time    0.0136: real time    0.0136
    TRIAL :  cpu time    0.0864: real time    0.0866
    CORREC:  cpu time    0.0009: real time    0.0009
    CHARGE:  cpu time    0.0322: real time    0.0322
    --------------------------------------------
      LOOP:  cpu time    0.1855: real time    0.1858

 eigenvalue-minimisations  :     0
 total energy-change (2. order) : 0.5349106E+00  (-0.2837353E+00)
 number of electron       8.0000003 magnetization       0.0000000      0.0000000     -0.0000000
 augmentation part       -1.4674465 magnetization       0.0000000      0.0000000     -0.0000000

 Free energy of the ion-electron system (eV)
  ---------------------------------------------------
  alpha Z        PSCENC =         6.67624893
  Ewald energy   TEWEN  =      -213.84743004
  -Hartree energ DENC   =       -28.93241254
  -exchange      EXHF   =         0.00000000
  -V(xc)+E(xc)   XCENC  =       -66.58946181
  PAW double counting   =       554.75788775     -474.51247637
  entropy T*S    EENTRO =        -0.00002948
  eigenvalues    EBANDS =        -8.91991091
  atomic energy  EATOM  =       223.97621261
  ---------------------------------------------------
  free energy    TOTEN  =        -7.39135624 eV

  energy without entropy =       -7.39132676  energy(sigma->0) =       -7.39134641


--------------------------------------------------------------------------------------------------------




--------------------------------------- Iteration      1(   7)  ---------------------------------------


    POTLOK:  cpu time    0.0526: real time    0.0535
    SETDIJ:  cpu time    0.0141: real time    0.0141
    TRIAL :  cpu time    0.0713: real time    0.0713
    CORREC:  cpu time    0.0009: real time    0.0009
    CHARGE:  cpu time    0.0342: real time    0.0342
    --------------------------------------------
      LOOP:  cpu time    0.1747: real time    0.1756

 eigenvalue-minimisations  :     0
 total energy-change (2. order) :-0.1980648E+00  (-0.9455147E-01)
 number of electron       8.0000003 magnetization       0.0000000      0.0000000     -0.0000000
 augmentation part       -1.4729297 magnetization       0.0000000      0.0000000     -0.0000000

 Free energy of the ion-electron system (eV)
  ---------------------------------------------------
  alpha Z        PSCENC =         6.67624893
  Ewald energy   TEWEN  =      -213.84743004
  -Hartree energ DENC   =       -27.06426243
  -exchange      EXHF   =         0.00000000
  -V(xc)+E(xc)   XCENC  =       -66.73183627
  PAW double counting   =       553.12641154     -472.85675276
  entropy T*S    EENTRO =        -0.00004583
  eigenvalues    EBANDS =       -10.86798315
  atomic energy  EATOM  =       223.97621261
  ---------------------------------------------------
  free energy    TOTEN  =        -7.58942106 eV

  energy without entropy =       -7.58937523  energy(sigma->0) =       -7.58940578


--------------------------------------------------------------------------------------------------------




--------------------------------------- Iteration      1(   8)  ---------------------------------------


    POTLOK:  cpu time    0.0523: real time    0.0523
    SETDIJ:  cpu time    0.0127: real time    0.0127
    TRIAL :  cpu time    0.0711: real time    0.0711
    CORREC:  cpu time    0.0009: real time    0.0009
    CHARGE:  cpu time    0.0325: real time    0.0328
    --------------------------------------------
      LOOP:  cpu time    0.1697: real time    0.1701

 eigenvalue-minimisations  :     0
 total energy-change (2. order) :-0.5029274E-01  (-0.1960010E-01)
 number of electron       8.0000003 magnetization       0.0000000      0.0000000      0.0000000
 augmentation part       -1.4828957 magnetization       0.0000000      0.0000000      0.0000000

 Free energy of the ion-electron system (eV)
  ---------------------------------------------------
  alpha Z        PSCENC =         6.67624893
  Ewald energy   TEWEN  =      -213.84743004
  -Hartree energ DENC   =       -25.76627193
  -exchange      EXHF   =         0.00000000
  -V(xc)+E(xc)   XCENC  =       -66.83866131
  PAW double counting   =       547.37999093     -467.09152362
  entropy T*S    EENTRO =        -0.00004394
  eigenvalues    EBANDS =       -12.12823354
  atomic energy  EATOM  =       223.97621261
  ---------------------------------------------------
  free energy    TOTEN  =        -7.63971380 eV

  energy without entropy =       -7.63966986  energy(sigma->0) =       -7.63969915


--------------------------------------------------------------------------------------------------------




--------------------------------------- Iteration      1(   9)  ---------------------------------------


    POTLOK:  cpu time    0.0528: real time    0.0528
    SETDIJ:  cpu time    0.0119: real time    0.0119
    TRIAL :  cpu time    0.0712: real time    0.0712
    CORREC:  cpu time    0.0008: real time    0.0008
    CHARGE:  cpu time    0.0312: real time    0.0312
    --------------------------------------------
      LOOP:  cpu time    0.1683: real time    0.1683

 eigenvalue-minimisations  :     0
 total energy-change (2. order) :-0.1190788E-01  (-0.1424328E-01)
 number of electron       8.0000003 magnetization      -0.0000000     -0.0000000     -0.0000000
 augmentation part       -1.4913143 magnetization      -0.0000000     -0.0000000     -0.0000000

 Free energy of the ion-electron system (eV)
  ---------------------------------------------------
  alpha Z        PSCENC =         6.67624893
  Ewald energy   TEWEN  =      -213.84743004
  -Hartree energ DENC   =       -25.38095547
  -exchange      EXHF   =         0.00000000
  -V(xc)+E(xc)   XCENC  =       -66.88049394
  PAW double counting   =       539.43200538     -459.13307409
  entropy T*S    EENTRO =        -0.00004181
  eigenvalues    EBANDS =       -12.49409112
  atomic energy  EATOM  =       223.97621261
  ---------------------------------------------------
  free energy    TOTEN  =        -7.65162167 eV

  energy without entropy =       -7.65157987  energy(sigma->0) =       -7.65160774


--------------------------------------------------------------------------------------------------------




--------------------------------------- Iteration      1(  10)  ---------------------------------------


    POTLOK:  cpu time    0.0513: real time    0.0513
    SETDIJ:  cpu time    0.0126: real time    0.0126
    TRIAL :  cpu time    0.0712: real time    0.0712
    CORREC:  cpu time    0.0008: real time    0.0008
    CHARGE:  cpu time    0.0312: real time    0.0312
    --------------------------------------------
      LOOP:  cpu time    0.1674: real time    0.1675

 eigenvalue-minimisations  :     0
 total energy-change (2. order) :-0.9736653E-02  (-0.5553918E-02)
 number of electron       8.0000003 magnetization      -0.0000000      0.0000000      0.0000000
 augmentation part       -1.4957644 magnetization      -0.0000000      0.0000000      0.0000000

 Free energy of the ion-electron system (eV)
  ---------------------------------------------------
  alpha Z        PSCENC =         6.67624893
  Ewald energy   TEWEN  =      -213.84743004
  -Hartree energ DENC   =       -25.46517625
  -exchange      EXHF   =         0.00000000
  -V(xc)+E(xc)   XCENC  =       -66.88422568
  PAW double counting   =       533.30248568     -452.99947077
  entropy T*S    EENTRO =        -0.00004923
  eigenvalues    EBANDS =       -12.41996100
  atomic energy  EATOM  =       223.97621261
  ---------------------------------------------------
  free energy    TOTEN  =        -7.66135833 eV

  energy without entropy =       -7.66130910  energy(sigma->0) =       -7.66134192


--------------------------------------------------------------------------------------------------------




--------------------------------------- Iteration      1(  11)  ---------------------------------------


    POTLOK:  cpu time    0.0523: real time    0.0523
    SETDIJ:  cpu time    0.0128: real time    0.0128
    TRIAL :  cpu time    0.0712: real time    0.0712
    CORREC:  cpu time    0.0008: real time    0.0008
    CHARGE:  cpu time    0.0313: real time    0.0313
    --------------------------------------------
      LOOP:  cpu time    0.1688: real time    0.1688

 eigenvalue-minimisations  :     0
 total energy-change (2. order) :-0.3195637E-02  (-0.1312003E-02)
 number of electron       8.0000003 magnetization      -0.0000000      0.0000000      0.0000000
 augmentation part       -1.4969808 magnetization      -0.0000000      0.0000000      0.0000000

 Free energy of the ion-electron system (eV)
  ---------------------------------------------------
  alpha Z        PSCENC =         6.67624893
  Ewald energy   TEWEN  =      -213.84743004
  -Hartree energ DENC   =       -25.60641217
  -exchange      EXHF   =         0.00000000
  -V(xc)+E(xc)   XCENC  =       -66.87904170
  PAW double counting   =       530.47222492     -450.16869122
  entropy T*S    EENTRO =        -0.00006204
  eigenvalues    EBANDS =       -12.28761607
  atomic energy  EATOM  =       223.97621261
  ---------------------------------------------------
  free energy    TOTEN  =        -7.66455397 eV

  energy without entropy =       -7.66449192  energy(sigma->0) =       -7.66453328


--------------------------------------------------------------------------------------------------------




--------------------------------------- Iteration      1(  12)  ---------------------------------------


    POTLOK:  cpu time    0.0521: real time    0.0521
    SETDIJ:  cpu time    0.0129: real time    0.0129
    TRIAL :  cpu time    0.0710: real time    0.0710
    CORREC:  cpu time    0.0009: real time    0.0009
    CHARGE:  cpu time    0.0312: real time    0.0312
    --------------------------------------------
      LOOP:  cpu time    0.1684: real time    0.1685

 eigenvalue-minimisations  :     0
 total energy-change (2. order) :-0.7493425E-03  (-0.6691811E-03)
 number of electron       8.0000003 magnetization       0.0000000      0.0000000      0.0000000
 augmentation part       -1.4967458 magnetization       0.0000000      0.0000000      0.0000000

 Free energy of the ion-electron system (eV)
  ---------------------------------------------------
  alpha Z        PSCENC =         6.67624893
  Ewald energy   TEWEN  =      -213.84743004
  -Hartree energ DENC   =       -25.64863851
  -exchange      EXHF   =         0.00000000
  -V(xc)+E(xc)   XCENC  =       -66.87780363
  PAW double counting   =       530.12645285     -449.82359495
  entropy T*S    EENTRO =        -0.00007202
  eigenvalues    EBANDS =       -12.24668853
  atomic energy  EATOM  =       223.97621261
  ---------------------------------------------------
  free energy    TOTEN  =        -7.66530331 eV

  energy without entropy =       -7.66523129  energy(sigma->0) =       -7.66527930


--------------------------------------------------------------------------------------------------------




--------------------------------------- Iteration      1(  13)  ---------------------------------------


    POTLOK:  cpu time    0.0519: real time    0.0519
    SETDIJ:  cpu time    0.0126: real time    0.0126
    TRIAL :  cpu time    0.0710: real time    0.0710
    CORREC:  cpu time    0.0009: real time    0.0009
    CHARGE:  cpu time    0.0312: real time    0.0312
    --------------------------------------------
      LOOP:  cpu time    0.1679: real time    0.1679

 eigenvalue-minimisations  :     0
 total energy-change (2. order) :-0.4455254E-03  (-0.2841199E-03)
 number of electron       8.0000003 magnetization       0.0000000     -0.0000000      0.0000000
 augmentation part       -1.4962969 magnetization       0.0000000     -0.0000000      0.0000000

 Free energy of the ion-electron system (eV)
  ---------------------------------------------------
  alpha Z        PSCENC =         6.67624893
  Ewald energy   TEWEN  =      -213.84743004
  -Hartree energ DENC   =       -25.61719472
  -exchange      EXHF   =         0.00000000
  -V(xc)+E(xc)   XCENC  =       -66.88050638
  PAW double counting   =       530.82317455     -450.52101060
  entropy T*S    EENTRO =        -0.00007764
  eigenvalues    EBANDS =       -12.27517117
  atomic energy  EATOM  =       223.97621261
  ---------------------------------------------------
  free energy    TOTEN  =        -7.66574883 eV

  energy without entropy =       -7.66567119  energy(sigma->0) =       -7.66572295


--------------------------------------------------------------------------------------------------------




--------------------------------------- Iteration      1(  14)  ---------------------------------------


    POTLOK:  cpu time    0.0519: real time    0.0519
    SETDIJ:  cpu time    0.0127: real time    0.0130
    TRIAL :  cpu time    0.0711: real time    0.0711
    CORREC:  cpu time    0.0009: real time    0.0009
    CHARGE:  cpu time    0.0312: real time    0.0312
    --------------------------------------------
      LOOP:  cpu time    0.1680: real time    0.1683

 eigenvalue-minimisations  :     0
 total energy-change (2. order) :-0.1660506E-03  (-0.7016811E-04)
 number of electron       8.0000003 magnetization      -0.0000000      0.0000000      0.0000000
 augmentation part       -1.4960594 magnetization      -0.0000000      0.0000000      0.0000000

 Free energy of the ion-electron system (eV)
  ---------------------------------------------------
  alpha Z        PSCENC =         6.67624893
  Ewald energy   TEWEN  =      -213.84743004
  -Hartree energ DENC   =       -25.57690260
  -exchange      EXHF   =         0.00000000
  -V(xc)+E(xc)   XCENC  =       -66.88345814
  PAW double counting   =       531.61670884     -451.31497827
  entropy T*S    EENTRO =        -0.00008032
  eigenvalues    EBANDS =       -12.31223857
  atomic energy  EATOM  =       223.97621261
  ---------------------------------------------------
  free energy    TOTEN  =        -7.66591488 eV

  energy without entropy =       -7.66583456  energy(sigma->0) =       -7.66588811


--------------------------------------------------------------------------------------------------------




--------------------------------------- Iteration      1(  15)  ---------------------------------------


    POTLOK:  cpu time    0.0524: real time    0.0524
    SETDIJ:  cpu time    0.0121: real time    0.0121
    TRIAL :  cpu time    0.0709: real time    0.0710
    CORREC:  cpu time    0.0009: real time    0.0009
    CHARGE:  cpu time    0.0313: real time    0.0313
    --------------------------------------------
      LOOP:  cpu time    0.1680: real time    0.1681

 eigenvalue-minimisations  :     0
 total energy-change (2. order) :-0.3793257E-04  (-0.3229913E-04)
 number of electron       8.0000003 magnetization       0.0000000      0.0000000     -0.0000000
 augmentation part       -1.4959977 magnetization       0.0000000      0.0000000     -0.0000000

 Free energy of the ion-electron system (eV)
  ---------------------------------------------------
  alpha Z        PSCENC =         6.67624893
  Ewald energy   TEWEN  =      -213.84743004
  -Hartree energ DENC   =       -25.55873434
  -exchange      EXHF   =         0.00000000
  -V(xc)+E(xc)   XCENC  =       -66.88473428
  PAW double counting   =       532.15178158     -451.85026506
  entropy T*S    EENTRO =        -0.00008149
  eigenvalues    EBANDS =       -12.32895189
  atomic energy  EATOM  =       223.97621261
  ---------------------------------------------------
  free energy    TOTEN  =        -7.66595282 eV

  energy without entropy =       -7.66587133  energy(sigma->0) =       -7.66592565


--------------------------------------------------------------------------------------------------------




--------------------------------------- Iteration      1(  16)  ---------------------------------------


    POTLOK:  cpu time    0.0517: real time    0.0517
    SETDIJ:  cpu time    0.0132: real time    0.0132
    TRIAL :  cpu time    0.0711: real time    0.0711
    CORREC:  cpu time    0.0009: real time    0.0009
    CHARGE:  cpu time    0.0312: real time    0.0312
    --------------------------------------------
      LOOP:  cpu time    0.1685: real time    0.1685

 eigenvalue-minimisations  :     0
 total energy-change (2. order) :-0.2219494E-04  (-0.1807954E-04)
 number of electron       8.0000003 magnetization      -0.0000000      0.0000000      0.0000000
 augmentation part       -1.4959859 magnetization      -0.0000000      0.0000000      0.0000000

 Free energy of the ion-electron system (eV)
  ---------------------------------------------------
  alpha Z        PSCENC =         6.67624893
  Ewald energy   TEWEN  =      -213.84743004
  -Hartree energ DENC   =       -25.56015078
  -exchange      EXHF   =         0.00000000
  -V(xc)+E(xc)   XCENC  =       -66.88454988
  PAW double counting   =       532.42175063     -452.12031564
  entropy T*S    EENTRO =        -0.00008196
  eigenvalues    EBANDS =       -12.32765936
  atomic energy  EATOM  =       223.97621261
  ---------------------------------------------------
  free energy    TOTEN  =        -7.66597501 eV

  energy without entropy =       -7.66589305  energy(sigma->0) =       -7.66594769


--------------------------------------------------------------------------------------------------------




--------------------------------------- Iteration      1(  17)  ---------------------------------------


    POTLOK:  cpu time    0.0522: real time    0.0522
    SETDIJ:  cpu time    0.0128: real time    0.0128
    TRIAL :  cpu time    0.0711: real time    0.0711
    CORREC:  cpu time    0.0009: real time    0.0009
    CHARGE:  cpu time    0.0313: real time    0.0313
    --------------------------------------------
      LOOP:  cpu time    0.1687: real time    0.1687

 eigenvalue-minimisations  :     0
 total energy-change (2. order) :-0.1193516E-04  (-0.5982271E-05)
 number of electron       8.0000003 magnetization      -0.0000000     -0.0000000      0.0000000
 augmentation part       -1.4959611 magnetization      -0.0000000     -0.0000000      0.0000000

 Free energy of the ion-electron system (eV)
  ---------------------------------------------------
  alpha Z        PSCENC =         6.67624893
  Ewald energy   TEWEN  =      -213.84743004
  -Hartree energ DENC   =       -25.56788709
  -exchange      EXHF   =         0.00000000
  -V(xc)+E(xc)   XCENC  =       -66.88387430
  PAW double counting   =       532.52782555     -452.22640415
  entropy T*S    EENTRO =        -0.00008214
  eigenvalues    EBANDS =       -12.32059649
  atomic energy  EATOM  =       223.97621261
  ---------------------------------------------------
  free energy    TOTEN  =        -7.66598695 eV

  energy without entropy =       -7.66590480  energy(sigma->0) =       -7.66595957


--------------------------------------------------------------------------------------------------------




--------------------------------------- Iteration      1(  18)  ---------------------------------------


    POTLOK:  cpu time    0.0523: real time    0.0523
    SETDIJ:  cpu time    0.0121: real time    0.0121
    TRIAL :  cpu time    0.0711: real time    0.0711
    CORREC:  cpu time    0.0008: real time    0.0008
    EDDIAG:  cpu time    0.0268: real time    0.0268
    CHARGE:  cpu time    0.0311: real time    0.0311
    --------------------------------------------
      LOOP:  cpu time    0.1946: real time    0.1946

 eigenvalue-minimisations  :     0
 total energy-change (2. order) :-0.3639802E-05  (-0.2041012E-05)
 number of electron       8.0000003 magnetization       0.0000000     -0.0000000      0.0000000
 augmentation part       -1.4959219 magnetization       0.0000000     -0.0000000      0.0000000

 Free energy of the ion-electron system (eV)
  ---------------------------------------------------
  alpha Z        PSCENC =         6.67624893
  Ewald energy   TEWEN  =      -213.84743004
  -Hartree energ DENC   =       -25.57333953
  -exchange      EXHF   =         0.00000000
  -V(xc)+E(xc)   XCENC  =       -66.88336280
  PAW double counting   =       532.55598500     -452.25454772
  entropy T*S    EENTRO =        -0.00008221
  eigenvalues    EBANDS =       -12.31567488
  atomic energy  EATOM  =       223.97621261
  ---------------------------------------------------
  free energy    TOTEN  =        -7.66599059 eV

  energy without entropy =       -7.66590838  energy(sigma->0) =       -7.66596318


--------------------------------------------------------------------------------------------------------


  average scaling for gradient   1.4336


 average (electrostatic) potential at core
  the test charge radii are     1.4837  1.0621
  (the norm of the test charge is              1.0000)
       1 -39.0389       2 -50.7885
 
 
 
 E-fermi :   3.3811     XC(G=0):  -8.8380     alpha+bet : -8.8632


 k-point     1 :       0.0000    0.0000    0.0000
  band No.  band energies     occupation 
      1      -8.5404      1.00000
      2      -8.5404      1.00000
      3       3.0276      1.00000
      4       3.0276      1.00000
      5       3.0966      1.00000
      6       3.0966      1.00000
      7       3.3804      0.50714
      8       3.3804      0.50663
      9       3.3804      0.50315
     10       3.3804      0.48307
     11       6.9065      0.00000
     12       6.9066      0.00000
     13       7.3562      0.00000
     14       7.3562      0.00000
     15       7.3562      0.00000
     16       7.3562      0.00000
     17      10.7889      0.00000
     18      10.7889      0.00000
     19      12.7824      0.00000
     20      12.7983      0.00000
     21      13.0855      0.00000

 k-point     2 :       0.1429    0.0000    0.0000
  band No.  band energies     occupation 
      1      -8.3617      1.00000
      2      -8.3617      1.00000
      3       1.1180      1.00000
      4       1.1180      1.00000
      5       2.9012      1.00000
      6       2.9012      1.00000
      7       3.1394      1.00000
      8       3.1465      1.00000
      9       4.4662     -0.00000
     10       4.4662     -0.00000
     11       7.2955      0.00000
     12       7.2957      0.00000
     13       7.5558      0.00000
     14       7.5561      0.00000
     15       7.6981      0.00000
     16       7.6985      0.00000
     17      11.7608      0.00000
     18      11.8035      0.00000
     19      11.8719      0.00000
     20      11.8742      0.00000
     21      11.8933      0.00000

 k-point     3 :       0.2857    0.0000    0.0000
  band No.  band energies     occupation 
      1      -7.8828      1.00000
      2      -7.8828      1.00000
      3      -0.8857      1.00000
      4      -0.8857      1.00000
      5       2.4714      1.00000
      6       2.4714      1.00000
      7       2.7168      1.00000
      8       2.7240      1.00000
      9       4.4830     -0.00000
     10       4.4830     -0.00000
     11       7.8507      0.00000
     12       7.8507      0.00000
     13       8.0904      0.00000
     14       8.0932      0.00000
     15       8.8626      0.00000
     16       8.8626      0.00000
     17      11.4899      0.00000
     18      11.5518      0.00000
     19      11.8879      0.00000
     20      11.8929      0.00000
     21      11.9428      0.00000

 k-point     4 :       0.4286    0.0000    0.0000
  band No.  band energies     occupation 
      1      -7.3666      1.00000
      2      -7.3666      1.00000
      3      -2.2354      1.00000
      4      -2.2354      1.00000
      5       2.1950      1.00000
      6       2.1950      1.00000
      7       2.4466      1.00000
      8       2.4495      1.00000
      9       4.2815     -0.00000
     10       4.2815     -0.00000
     11       7.8905      0.00000
     12       7.8905      0.00000
     13       8.0681      0.00000
     14       8.0687      0.00000
     15      10.0385      0.00000
     16      10.0389      0.00000
     17      11.8802      0.00000
     18      11.8923      0.00000
     19      13.2715      0.00000
     20      13.3334      0.00000
     21      13.4729      0.00000

 k-point     5 :      -0.4286    0.0000    0.0000
  band No.  band energies     occupation 
      1      -7.3666      1.00000
      2      -7.3666      1.00000
      3      -2.2354      1.00000
      4      -2.2354      1.00000
      5       2.1950      1.00000
      6       2.1950      1.00000
      7       2.4466      1.00000
      8       2.4495      1.00000
      9       4.2815     -0.00000
     10       4.2815     -0.00000
     11       7.8905      0.00000
     12       7.8905      0.00000
     13       8.0683      0.00000
     14       8.0684      0.00000
     15      10.0385      0.00000
     16      10.0402      0.00000
     17      11.8797      0.00000
     18      12.6080      0.00000
     19      13.2698      0.00000
     20      13.3295      0.00000
     21      13.3909      0.00000

 k-point     6 :      -0.2857    0.0000    0.0000
  band No.  band energies     occupation 
      1      -7.8828      1.00000
      2      -7.8828      1.00000
      3      -0.8857      1.00000
      4      -0.8857      1.00000
      5       2.4714      1.00000
      6       2.4714      1.00000
      7       2.7168      1.00000
      8       2.7240      1.00000
      9       4.4830     -0.00000
     10       4.4830     -0.00000
     11       7.8507      0.00000
     12       7.8511      0.00000
     13       8.0902      0.00000
     14       8.0934      0.00000
     15       8.8623      0.00000
     16       8.8626      0.00000
     17      11.4901      0.00000
     18      11.6411      0.00000
     19      11.8910      0.00000
     20      11.8917      0.00000
     21      11.9547      0.00000

 k-point     7 :      -0.1429    0.0000    0.0000
  band No.  band energies     occupation 
      1      -8.3617      1.00000
      2      -8.3617      1.00000
      3       1.1180      1.00000
      4       1.1180      1.00000
      5       2.9012      1.00000
      6       2.9012      1.00000
      7       3.1394      1.00000
      8       3.1465      1.00000
      9       4.4662     -0.00000
     10       4.4662     -0.00000
     11       7.2955      0.00000
     12       7.2956      0.00000
     13       7.5558      0.00000
     14       7.5559      0.00000
     15       7.6980      0.00000
     16       7.6988      0.00000
     17      11.7665      0.00000
     18      11.8536      0.00000
     19      11.8770      0.00000
     20      11.8856      0.00000
     21      12.4454      0.00000

 k-point     8 :       0.1429    0.1429    0.0000
  band No.  band energies     occupation 
      1      -8.3014      1.00000
      2      -8.3014      1.00000
      3       1.0529      1.00000
      4       1.0529      1.00000
      5       2.5376      1.00000
      6       2.5376      1.00000
      7       2.6827      1.00000
      8       2.6827      1.00000
      9       5.2372      0.00000
     10       5.2372      0.00000
     11       6.3662      0.00000
     12       6.3662      0.00000
     13       8.0625      0.00000
     14       8.0626      0.00000
     15       8.2654      0.00000
     16       8.2655      0.00000
     17      10.6146      0.00000
     18      10.6148      0.00000
     19      12.3044      0.00000
     20      12.3353      0.00000
     21      14.1770      0.00000

 k-point     9 :       0.2857    0.1429    0.0000
  band No.  band energies     occupation 
      1      -7.9186      1.00000
      2      -7.9162      1.00000
      3      -0.4379      1.00000
      4      -0.4345      1.00000
      5       1.9997      1.00000
      6       2.0222      1.00000
      7       2.1932      1.00000
      8       2.1971      1.00000
      9       5.5984      0.00000
     10       5.5991      0.00000
     11       6.6176      0.00000
     12       6.6578      0.00000
     13       8.5965      0.00000
     14       8.6227      0.00000
     15       8.8356      0.00000
     16       8.8501      0.00000
     17      10.7396      0.00000
     18      10.7468      0.00000
     19      12.9237      0.00000
     20      13.0138      0.00000
     21      13.4270      0.00000

 k-point    10 :       0.4286    0.1429    0.0000
  band No.  band energies     occupation 
      1      -7.3871      1.00000
      2      -7.3795      1.00000
      3      -1.8864      1.00000
      4      -1.8693      1.00000
      5       1.4348      1.00000
      6       1.4554      1.00000
      7       1.9569      1.00000
      8       1.9588      1.00000
      9       5.4006      0.00000
     10       5.4070      0.00000
     11       7.4089      0.00000
     12       7.4358      0.00000
     13       8.7878      0.00000
     14       8.7899      0.00000
     15       9.2151      0.00000
     16       9.2768      0.00000
     17      11.9379      0.00000
     18      12.0023      0.00000
     19      13.1574      0.00000
     20      13.7035      0.00000
     21      14.1877      0.00000

 k-point    11 :      -0.4286    0.1429    0.0000
  band No.  band energies     occupation 
      1      -7.1768      1.00000
      2      -7.1657      1.00000
      3      -2.3451      1.00000
      4      -2.3205      1.00000
      5       1.1169      1.00000
      6       1.1300      1.00000
      7       2.0782      1.00000
      8       2.0832      1.00000
      9       5.3356      0.00000
     10       5.3380      0.00000
     11       7.5961      0.00000
     12       7.6215      0.00000
     13       8.5110      0.00000
     14       8.5119      0.00000
     15      10.2893      0.00000
     16      10.3237      0.00000
     17      12.2004      0.00000
     18      12.3598      0.00000
     19      13.0703      0.00000
     20      13.1618      0.00000
     21      13.2066      0.00000

 k-point    12 :      -0.2857    0.1429    0.0000
  band No.  band energies     occupation 
      1      -7.5651      1.00000
      2      -7.5582      1.00000
      3      -1.4657      1.00000
      4      -1.4471      1.00000
      5       1.2123      1.00000
      6       1.2232      1.00000
      7       2.4823      1.00000
      8       2.4909      1.00000
      9       5.4312      0.00000
     10       5.4459      0.00000
     11       7.8638      0.00000
     12       7.8809      0.00000
     13       8.2347      0.00000
     14       8.2382      0.00000
     15       8.9732      0.00000
     16       8.9832      0.00000
     17      11.3544      0.00000
     18      11.3823      0.00000
     19      12.5073      0.00000
     20      12.5645      0.00000
     21      13.9667      0.00000

 k-point    13 :      -0.1429    0.1429    0.0000
  band No.  band energies     occupation 
      1      -8.0808      1.00000
      2      -8.0786      1.00000
      3       0.0171      1.00000
      4       0.0210      1.00000
      5       1.8908      1.00000
      6       1.9089      1.00000
      7       2.9432      1.00000
      8       2.9544      1.00000
      9       5.2614      0.00000
     10       5.2779      0.00000
     11       7.2784      0.00000
     12       7.4226      0.00000
     13       7.7105      0.00000
     14       7.7487      0.00000
     15       8.4088      0.00000
     16       8.4967      0.00000
     17      10.9995      0.00000
     18      11.0328      0.00000
     19      12.0119      0.00000
     20      12.1219      0.00000
     21      12.9599      0.00000

 k-point    14 :       0.2857    0.2857    0.0000
  band No.  band energies     occupation 
      1      -7.6500      1.00000
      2      -7.6500      1.00000
      3      -0.8822      1.00000
      4      -0.8822      1.00000
      5       1.5938      1.00000
      6       1.5938      1.00000
      7       1.6592      1.00000
      8       1.6592      1.00000
      9       5.3578      0.00000
     10       5.3578      0.00000
     11       6.0442      0.00000
     12       6.0442      0.00000
     13       9.9418      0.00000
     14       9.9420      0.00000
     15      10.0937      0.00000
     16      10.0937      0.00000
     17      10.2036      0.00000
     18      10.2037      0.00000
     19      13.6357      0.00000
     20      13.6543      0.00000
     21      15.1414      0.00000

 k-point    15 :       0.4286    0.2857    0.0000
  band No.  band energies     occupation 
      1      -7.2024      1.00000
      2      -7.1940      1.00000
      3      -1.8218      1.00000
      4      -1.8031      1.00000
      5       0.8862      1.00000
      6       0.9048      1.00000
      7       1.3812      1.00000
      8       1.3816      1.00000
      9       5.4167      0.00000
     10       5.4413      0.00000
     11       6.4025      0.00000
     12       6.4247      0.00000
     13       9.5591      0.00000
     14       9.6258      0.00000
     15      10.4528      0.00000
     16      10.4714      0.00000
     17      12.2512      0.00000
     18      12.2532      0.00000
     19      14.4313      0.00000
     20      14.7626      0.00000
     21      15.5711      0.00000

 k-point    16 :      -0.4286    0.2857    0.0000
  band No.  band energies     occupation 
      1      -6.9146      1.00000
      2      -6.8957      1.00000
      3      -2.3185      1.00000
      4      -2.2733      1.00000
      5       0.1550      1.00000
      6       0.1610      1.00000
      7       1.5027      1.00000
      8       1.5057      1.00000
      9       5.5473      0.00000
     10       5.5500      0.00000
     11       7.8491      0.00000
     12       7.9378      0.00000
     13       9.5426      0.00000
     14       9.7118      0.00000
     15      10.0233      0.00000
     16      10.0442      0.00000
     17      11.5521      0.00000
     18      11.6834      0.00000
     19      13.2258      0.00000
     20      13.2588      0.00000
     21      15.4380      0.00000

 k-point    17 :      -0.2857    0.2857    0.0000
  band No.  band energies     occupation 
      1      -7.1190      1.00000
      2      -7.1025      1.00000
      3      -2.0191      1.00000
      4      -1.9725      1.00000
      5       0.1352      1.00000
      6       0.1366      1.00000
      7       1.9508      1.00000
      8       1.9568      1.00000
      9       5.8247      0.00000
     10       5.8496      0.00000
     11       8.2922      0.00000
     12       8.4166      0.00000
     13       9.0924      0.00000
     14       9.2190      0.00000
     15       9.2497      0.00000
     16       9.3039      0.00000
     17      11.6683      0.00000
     18      11.6912      0.00000
     19      11.8000      0.00000
     20      11.9423      0.00000
     21      15.5447      0.00000

 k-point    18 :      -0.1429    0.2857    0.0000
  band No.  band energies     occupation 
      1      -7.5651      1.00000
      2      -7.5582      1.00000
      3      -1.4657      1.00000
      4      -1.4471      1.00000
      5       1.2123      1.00000
      6       1.2232      1.00000
      7       2.4823      1.00000
      8       2.4909      1.00000
      9       5.4312      0.00000
     10       5.4459      0.00000
     11       7.8645      0.00000
     12       7.8803      0.00000
     13       8.2349      0.00000
     14       8.2380      0.00000
     15       8.9724      0.00000
     16       8.9841      0.00000
     17      11.3535      0.00000
     18      11.3834      0.00000
     19      12.5301      0.00000
     20      12.5449      0.00000
     21      13.9661      0.00000

 k-point    19 :       0.4286    0.4286    0.0000
  band No.  band energies     occupation 
      1      -6.9101      1.00000
      2      -6.9101      1.00000
      3      -2.2893      1.00000
[...]
 -0.000   0.000  -0.000   0.000   3.950   0.000  -0.000   0.000  -0.000   0.094   6.784   0.000  -0.000   0.000  -0.000   0.165
 -0.000   0.000  -0.000   0.000  -0.000   0.000   3.950   0.000  -0.000   0.000  -0.000   0.000   6.784   0.000  -0.000   0.000
 -0.000   0.000  -0.000   0.000  -0.000  -0.094  -0.000   0.000   3.950   0.000  -0.000  -0.165  -0.000   0.000   6.784   0.000
 -0.000   0.000  -0.000   0.000   6.784   0.000  -0.000   0.000  -0.000   0.165  11.711   0.000  -0.000   0.000  -0.000   0.291
 -0.000   0.000  -0.000   0.000  -0.000   0.000   6.784   0.000  -0.000   0.000  -0.000   0.000  11.711   0.000  -0.000   0.000
 -0.000   0.000  -0.000   0.000  -0.000  -0.165  -0.000   0.000   6.784   0.000  -0.000  -0.291  -0.000   0.000  11.711   0.000
 -0.000   0.000  -0.000   0.000  -0.000   0.000  -0.006   0.000  -0.000   0.000  -0.000   0.000  -0.010   0.000  -0.000   0.000
 -0.000   0.000  -0.000   0.000   0.000   0.000  -0.000   0.000  -0.006   0.000   0.000   0.000  -0.000   0.000  -0.010   0.000
  0.000   0.000   0.000   0.000   0.000   0.000  -0.000   0.000   0.000   0.000   0.000   0.000  -0.000   0.000   0.000   0.000
 -0.000   0.000  -0.000   0.000  -0.006   0.000  -0.000   0.000  -0.000   0.000  -0.010   0.000  -0.000   0.000  -0.000   0.000
 -0.000   0.000  -0.000   0.000   0.000   0.000  -0.000   0.000  -0.000   0.000   0.000   0.000  -0.000   0.000  -0.000   0.000
 pseudopotential strength for first ion, spin component:           2
  0.000  -0.000   0.000  -0.000  -0.000   0.000  -0.000  -0.000  -0.000   0.000  -0.000   0.000  -0.000  -0.000  -0.000   0.000
  0.000  -0.000   0.000  -0.000  -0.000   0.000  -0.000  -0.000  -0.000   0.000  -0.000   0.000  -0.000  -0.000  -0.000   0.000
 -0.000   0.000  -0.000   0.000  -0.000  -0.000  -0.000  -0.094   0.000   0.000  -0.000  -0.000  -0.000  -0.165   0.000   0.000
 -0.000  -0.000  -0.000  -0.000  -0.000   0.094   0.000  -0.000  -0.094  -0.000  -0.000   0.165   0.000  -0.000  -0.165  -0.000
 -0.000   0.000  -0.000   0.000   0.000   0.000   0.094  -0.000   0.000  -0.000   0.000   0.000   0.165  -0.000   0.000  -0.000
 -0.000   0.000  -0.000   0.000  -0.000  -0.000  -0.000  -0.165   0.000   0.000  -0.000  -0.000  -0.000  -0.291   0.000   0.000
 -0.000  -0.000  -0.000  -0.000  -0.000   0.165   0.000  -0.000  -0.165  -0.000  -0.000   0.291   0.000  -0.000  -0.291  -0.000
 -0.000   0.000  -0.000   0.000   0.000   0.000   0.165  -0.000   0.000  -0.000   0.000   0.000   0.291  -0.000   0.000  -0.000
  0.000   0.000   0.000   0.000  -0.000   0.000  -0.000  -0.000   0.000  -0.000  -0.000   0.000  -0.000  -0.000   0.000  -0.000
 -0.000  -0.000  -0.000  -0.000  -0.000  -0.000  -0.000   0.000  -0.000  -0.000  -0.000  -0.000  -0.000   0.000  -0.000  -0.000
  0.000   0.000   0.000   0.000   0.000   0.000  -0.000  -0.000   0.000  -0.000   0.000   0.000  -0.000  -0.000   0.000  -0.000
 -0.000  -0.000  -0.000  -0.000  -0.000  -0.000   0.000   0.000  -0.000   0.000  -0.000  -0.000   0.000   0.000  -0.000   0.000
  0.000   0.000   0.000   0.000   0.000  -0.000  -0.000   0.000   0.000   0.000   0.000  -0.000  -0.000   0.000   0.000   0.000
 pseudopotential strength for first ion, spin component:           3
  0.000   0.000   0.000   0.000  -0.000  -0.000  -0.000   0.000  -0.000  -0.000  -0.000  -0.000  -0.000   0.000  -0.000  -0.000
  0.000   0.000   0.000   0.000  -0.000  -0.000  -0.000   0.000  -0.000  -0.000  -0.000  -0.000  -0.000   0.000  -0.000  -0.000
 -0.000  -0.000  -0.000  -0.000  -0.000   0.000  -0.000  -0.094   0.000  -0.000  -0.000   0.000  -0.000  -0.165   0.000  -0.000
 -0.000   0.000  -0.000   0.000  -0.000   0.094   0.000   0.000   0.094   0.000  -0.000   0.165   0.000   0.000   0.165   0.000
 -0.000  -0.000  -0.000  -0.000   0.000  -0.000  -0.094   0.000   0.000   0.000   0.000  -0.000  -0.165   0.000   0.000   0.000
 -0.000  -0.000  -0.000  -0.000  -0.000   0.000  -0.000  -0.165   0.000  -0.000  -0.000   0.000  -0.000  -0.291   0.000  -0.000
 -0.000   0.000  -0.000   0.000  -0.000   0.165   0.000   0.000   0.165   0.000  -0.000   0.291   0.000   0.000   0.291   0.000
 -0.000  -0.000  -0.000  -0.000   0.000  -0.000  -0.165   0.000   0.000   0.000   0.000  -0.000  -0.291   0.000   0.000   0.000
  0.000  -0.000   0.000  -0.000  -0.000  -0.000  -0.000   0.000   0.000   0.000  -0.000  -0.000  -0.000   0.000   0.000   0.000
 -0.000   0.000  -0.000   0.000  -0.000   0.000  -0.000  -0.000  -0.000   0.000  -0.000   0.000  -0.000  -0.000  -0.000   0.000
  0.000  -0.000   0.000  -0.000   0.000  -0.000  -0.000   0.000   0.000   0.000   0.000  -0.000  -0.000   0.000   0.000   0.000
 -0.000   0.000  -0.000   0.000  -0.000   0.000   0.000  -0.000  -0.000  -0.000  -0.000   0.000   0.000  -0.000  -0.000  -0.000
  0.000  -0.000   0.000  -0.000   0.000   0.000  -0.000  -0.000   0.000  -0.000   0.000   0.000  -0.000  -0.000   0.000  -0.000
 pseudopotential strength for first ion, spin component:           4
 21.443   0.000  25.653   0.000  -0.000   0.000  -0.000   0.000  -0.000   0.000  -0.000   0.000  -0.000   0.000  -0.000   0.000
 25.653   0.000  30.702   0.000  -0.000   0.000  -0.000   0.000  -0.000   0.000  -0.000   0.000  -0.000   0.000  -0.000   0.000
 -0.000   0.000  -0.000   0.000   3.950   0.000  -0.000   0.000  -0.000  -0.094   6.784   0.000  -0.000   0.000  -0.000  -0.165
 -0.000   0.000  -0.000   0.000  -0.000   0.000   3.950   0.000  -0.000   0.000  -0.000   0.000   6.784   0.000  -0.000   0.000
 -0.000   0.000  -0.000   0.000  -0.000   0.094  -0.000   0.000   3.950   0.000  -0.000   0.165  -0.000   0.000   6.784   0.000
 -0.000   0.000  -0.000   0.000   6.784   0.000  -0.000   0.000  -0.000  -0.165  11.711   0.000  -0.000   0.000  -0.000  -0.291
 -0.000   0.000  -0.000   0.000  -0.000   0.000   6.784   0.000  -0.000   0.000  -0.000   0.000  11.711   0.000  -0.000   0.000
 -0.000   0.000  -0.000   0.000  -0.000   0.165  -0.000   0.000   6.784   0.000  -0.000   0.291  -0.000   0.000  11.711   0.000
 -0.000   0.000  -0.000   0.000  -0.000   0.000  -0.006   0.000  -0.000   0.000  -0.000   0.000  -0.010   0.000  -0.000   0.000
 -0.000   0.000  -0.000   0.000  -0.000   0.000  -0.000   0.000  -0.006   0.000  -0.000   0.000  -0.000   0.000  -0.010   0.000
 -0.000   0.000  -0.000   0.000   0.000   0.000  -0.000   0.000   0.000   0.000   0.000   0.000  -0.000   0.000   0.000   0.000
 -0.000   0.000  -0.000   0.000  -0.006   0.000  -0.000   0.000   0.000   0.000  -0.010   0.000  -0.000   0.000   0.000   0.000
  0.000   0.000   0.000   0.000   0.000   0.000   0.000   0.000  -0.000   0.000   0.000   0.000   0.000   0.000  -0.000   0.000
 total augmentation occupancy for first ion, spin component:           1
  6.852  -3.483  -0.000  -0.000   0.000   0.000  -0.000  -0.000   0.000  -0.000   0.000  -0.000   0.000
 -3.483   2.002   0.000   0.000   0.000   0.000  -0.000   0.000   0.000   0.000   0.000  -0.000   0.000
 -0.000  -0.000   2.940   0.000  -0.000  -0.807   0.000   0.000   0.000  -0.000  -0.000  -0.412   0.000
  0.000   0.000   0.000   2.940   0.000   0.000  -0.807   0.000  -0.412  -0.000  -0.000   0.000   0.000
  0.000   0.000  -0.000   0.000   2.940   0.000  -0.000  -0.807   0.000  -0.412   0.000  -0.000   0.000
  0.000  -0.000  -0.807  -0.000  -0.000   0.239   0.000   0.000   0.000  -0.000  -0.000   0.110   0.000
  0.000   0.000   0.000  -0.807   0.000   0.000   0.239  -0.000   0.110   0.000   0.000  -0.000  -0.000
  0.000   0.000   0.000   0.000  -0.807   0.000   0.000   0.239  -0.000   0.110   0.000   0.000   0.000
  0.000   0.000  -0.000  -0.412   0.000   0.000   0.110  -0.000   0.102   0.000   0.000  -0.000  -0.000
 -0.000   0.000  -0.000   0.000  -0.412   0.000  -0.000   0.110   0.000   0.102   0.000  -0.000  -0.000
  0.000   0.000   0.000   0.000   0.000  -0.000  -0.000   0.000   0.000   0.000   0.030  -0.000   0.000
  0.000   0.000  -0.412  -0.000   0.000   0.110   0.000   0.000  -0.000  -0.000   0.000   0.102   0.000
  0.000   0.000   0.000   0.000  -0.000  -0.000   0.000  -0.000   0.000  -0.000  -0.000   0.000   0.030
 total augmentation occupancy for first ion, spin component:           2
  0.000  -0.000  -0.000  -0.000   0.000   0.000   0.000   0.000  -0.000   0.000  -0.000  -0.000  -0.000
 -0.000  -0.000   0.000   0.000   0.000   0.000   0.000   0.000   0.000   0.000  -0.000  -0.000   0.000
  0.000  -0.000   0.000  -0.000   0.000   0.000   0.000   0.000  -0.000   0.000   0.000  -0.000  -0.000
 -0.000   0.000   0.000  -0.000   0.000  -0.000   0.000   0.000  -0.000   0.000   0.000   0.000   0.000
  0.000   0.000   0.000   0.000   0.000  -0.000  -0.000   0.000  -0.000  -0.000  -0.000  -0.000  -0.000
  0.000  -0.000   0.000  -0.000   0.000  -0.000  -0.000   0.000   0.000   0.000   0.000  -0.000  -0.000
  0.000  -0.000   0.000  -0.000  -0.000   0.000   0.000   0.000   0.000   0.000   0.000  -0.000  -0.000
  0.000   0.000   0.000  -0.000   0.000   0.000   0.000   0.000   0.000   0.000   0.000   0.000   0.000
  0.000   0.000  -0.000  -0.000   0.000   0.000   0.000   0.000   0.000   0.000  -0.000   0.000  -0.000
  0.000   0.000  -0.000  -0.000   0.000  -0.000  -0.000   0.000   0.000   0.000  -0.000   0.000  -0.000
 -0.000   0.000  -0.000   0.000  -0.000   0.000  -0.000   0.000   0.000  -0.000   0.000   0.000  -0.000
  0.000   0.000   0.000   0.000   0.000  -0.000  -0.000   0.000  -0.000   0.000  -0.000  -0.000  -0.000
  0.000   0.000   0.000  -0.000  -0.000  -0.000   0.000   0.000   0.000  -0.000  -0.000   0.000   0.000
 total augmentation occupancy for first ion, spin component:           3
  0.000   0.000   0.000  -0.000   0.000   0.000   0.000   0.000  -0.000  -0.000   0.000   0.000  -0.000
  0.000  -0.000   0.000   0.000   0.000   0.000  -0.000  -0.000  -0.000  -0.000   0.000   0.000  -0.000
  0.000   0.000   0.000  -0.000   0.000   0.000   0.000  -0.000   0.000  -0.000   0.000   0.000  -0.000
  0.000  -0.000   0.000   0.000  -0.000   0.000  -0.000   0.000   0.000  -0.000   0.000   0.000   0.000
 -0.000   0.000  -0.000   0.000  -0.000   0.000  -0.000   0.000   0.000   0.000   0.000   0.000  -0.000
  0.000   0.000   0.000  -0.000  -0.000   0.000   0.000  -0.000   0.000   0.000  -0.000   0.000   0.000
  0.000   0.000   0.000   0.000  -0.000  -0.000   0.000  -0.000   0.000   0.000   0.000  -0.000  -0.000
  0.000  -0.000  -0.000   0.000  -0.000  -0.000   0.000   0.000  -0.000  -0.000  -0.000   0.000  -0.000
 -0.000   0.000  -0.000   0.000   0.000   0.000  -0.000  -0.000   0.000  -0.000  -0.000  -0.000   0.000
  0.000  -0.000   0.000  -0.000   0.000   0.000   0.000   0.000   0.000  -0.000   0.000   0.000   0.000
  0.000   0.000   0.000  -0.000   0.000  -0.000  -0.000  -0.000   0.000  -0.000  -0.000   0.000  -0.000
  0.000   0.000   0.000   0.000  -0.000   0.000  -0.000   0.000   0.000  -0.000   0.000   0.000  -0.000
 -0.000   0.000  -0.000   0.000   0.000   0.000  -0.000  -0.000  -0.000  -0.000  -0.000  -0.000  -0.000
 total augmentation occupancy for first ion, spin component:           4
 -0.000  -0.000   0.000   0.000  -0.000   0.000   0.000  -0.000   0.000  -0.000   0.000  -0.000  -0.000
 -0.000  -0.000   0.000   0.000  -0.000  -0.000   0.000  -0.000   0.000   0.000  -0.000   0.000   0.000
  0.000  -0.000  -0.000   0.000   0.000   0.000  -0.000  -0.000  -0.000   0.000   0.000   0.000  -0.000
  0.000   0.000   0.000   0.000   0.000  -0.000   0.000  -0.000   0.000   0.000   0.000  -0.000   0.000
 -0.000  -0.000  -0.000   0.000   0.000   0.000   0.000  -0.000  -0.000  -0.000  -0.000  -0.000  -0.000
  0.000   0.000   0.000  -0.000   0.000  -0.000  -0.000   0.000   0.000  -0.000  -0.000  -0.000   0.000
  0.000   0.000  -0.000   0.000  -0.000   0.000  -0.000   0.000   0.000   0.000   0.000   0.000  -0.000
  0.000   0.000  -0.000   0.000   0.000  -0.000  -0.000  -0.000  -0.000  -0.000   0.000   0.000   0.000
  0.000   0.000  -0.000   0.000  -0.000   0.000   0.000  -0.000   0.000  -0.000   0.000   0.000   0.000
  0.000   0.000   0.000   0.000   0.000  -0.000   0.000   0.000  -0.000  -0.000   0.000  -0.000   0.000
 -0.000  -0.000   0.000   0.000   0.000  -0.000   0.000  -0.000   0.000   0.000   0.000  -0.000  -0.000
 -0.000  -0.000   0.000  -0.000  -0.000   0.000   0.000   0.000  -0.000   0.000  -0.000   0.000  -0.000
  0.000   0.000   0.000   0.000   0.000  -0.000  -0.000   0.000   0.000  -0.000  -0.000   0.000   0.000


------------------------ aborting loop because EDIFF is reached ----------------------------------------


    FORLOC:  cpu time    0.0015: real time    0.0015
    FORNL :  cpu time    0.0484: real time    0.0484
    STRESS:  cpu time    0.1987: real time    0.1992
    FORCOR:  cpu time    0.0457: real time    0.0457
    OFIELD:  cpu time    0.0004: real time    0.0004

  FORCE on cell =-STRESS in cart. coord.  units (eV):
  Direction    XX          YY          ZZ          XY          YZ          ZX
  --------------------------------------------------------------------------------------
  Alpha Z     6.67625     6.67625     6.67625
  Ewald     -71.28251   -71.28251   -71.28251     0.00000     0.00000     0.00000
  Hartree     8.52494     8.52494     8.52494     0.00000     0.00000     0.00000
  E(xc)     -31.56236   -31.56236   -31.56236    -0.00000    -0.00000    -0.00000
  Local     -33.42278   -33.42278   -33.42278     0.00002     0.00002     0.00002
  n-local    69.85609    70.62482    66.50520     1.76717    -0.61557     0.21011
  augment    -8.53901    -8.53901    -8.53901    -0.00002    -0.00002    -0.00002
  Kinetic    64.08160    63.57574    58.78504     3.80569    -0.92829     0.56936
  Fock        0.00000     0.00000     0.00000     0.00000     0.00000     0.00000
  -------------------------------------------------------------------------------------
  Total       1.53736     1.53736     1.53736     0.00000     0.00000     0.00000
  in kB      44.30713    44.30713    44.30713     0.00000     0.00000     0.00000
  external pressure =       44.31 kB  Pullay stress =        0.00 kB


 VOLUME and BASIS-vectors are now :
 -----------------------------------------------------------------------------
  energy-cutoff  :      400.00
  volume of cell :       55.59
      direct lattice vectors                 reciprocal lattice vectors
     0.000000000  3.029200000  3.029200000    -0.165060082  0.165060082  0.165060082
     3.029200000  0.000000000  3.029200000     0.165060082 -0.165060082  0.165060082
     3.029200000  3.029200000  0.000000000     0.165060082  0.165060082 -0.165060082

  length of vectors
     4.283935723  4.283935723  4.283935723     0.285892448  0.285892448  0.285892448


 FORCES acting on ions:
    Electron-Ion                     Ewald-Force                    Non-Local-Force
 -----------------------------------------------------------------------------------------------
   0.423E-06 0.423E-06 0.423E-06   -.437E-14 -.349E-14 -.380E-14   -.278E-16 -.139E-16 -.486E-16
   -.321E-06 -.321E-06 -.321E-06   0.437E-14 0.340E-14 0.349E-14   -.160E-15 -.132E-15 -.132E-15
 -----------------------------------------------------------------------------------------------
   0.122E-06 0.122E-06 0.122E-06   -.623E-17 -.883E-16 -.308E-15   -.187E-15 -.146E-15 -.180E-15
 
 
 POSITION                                       TOTAL-FORCE (eV/Angst)
 -----------------------------------------------------------------------------------
      0.00000      0.00000      0.00000         0.000000     -0.000000      0.000000
      4.54380      4.54380      4.54380        -0.000000      0.000000     -0.000000
 -----------------------------------------------------------------------------------
    total drift:                                0.000000      0.000000      0.000000


--------------------------------------------------------------------------------------------------------



  FREE ENERGIE OF THE ION-ELECTRON SYSTEM (eV)
  ---------------------------------------------------
  free  energy   TOTEN  =        -7.66599059 eV

  energy  without entropy=       -7.66590838  energy(sigma->0) =       -7.66596318
 


--------------------------------------------------------------------------------------------------------


    POTLOK:  cpu time    0.0653: real time    0.0653


--------------------------------------------------------------------------------------------------------


 writing wavefunctions
     LOOP+:  cpu time    4.4357: real time    4.8551
    4ORBIT:  cpu time    0.0000: real time    0.0000

 Spin-Orbit-Coupling matrix elements

 Ion:    1  E_soc:     -0.0346523
 l=   1
     0.0000000    -0.0056021    -0.0056021
    -0.0056021     0.0000000    -0.0056021
    -0.0056021    -0.0056021     0.0000000
 l=   2
     0.0000000    -0.0000610     0.0000000    -0.0000610    -0.0001124
    -0.0000610     0.0000000    -0.0000843    -0.0000610    -0.0000281
     0.0000000    -0.0000843     0.0000000    -0.0000843     0.0000000
    -0.0000610    -0.0000610    -0.0000843     0.0000000    -0.0000281
    -0.0001124    -0.0000281     0.0000000    -0.0000281     0.0000000
 l=   3
     0.0000000     0.0000000     0.0000000     0.0000000     0.0000000     0.0000000     0.0000000
     0.0000000     0.0000000     0.0000000     0.0000000     0.0000000     0.0000000     0.0000000
     0.0000000     0.0000000     0.0000000     0.0000000     0.0000000     0.0000000     0.0000000
     0.0000000     0.0000000     0.0000000     0.0000000     0.0000000     0.0000000     0.0000000
     0.0000000     0.0000000     0.0000000     0.0000000     0.0000000     0.0000000     0.0000000
     0.0000000     0.0000000     0.0000000     0.0000000     0.0000000     0.0000000     0.0000000
     0.0000000     0.0000000     0.0000000     0.0000000     0.0000000     0.0000000     0.0000000

 Ion:    2  E_soc:     -0.0266024
 l=   1
     0.0000000    -0.0044350    -0.0044350
    -0.0044350     0.0000000    -0.0044350
    -0.0044350    -0.0044350     0.0000000
 l=   2
     0.0000000     0.0000005     0.0000000     0.0000005     0.0000007
     0.0000005     0.0000000     0.0000005     0.0000005     0.0000002
     0.0000000     0.0000005     0.0000000     0.0000005     0.0000000
     0.0000005     0.0000005     0.0000005     0.0000000     0.0000002
     0.0000007     0.0000002     0.0000000     0.0000002     0.0000000
 l=   3
     0.0000000     0.0000000     0.0000000     0.0000000     0.0000000     0.0000000     0.0000000
     0.0000000     0.0000000     0.0000000     0.0000000     0.0000000     0.0000000     0.0000000
     0.0000000     0.0000000     0.0000000     0.0000000     0.0000000     0.0000000     0.0000000
     0.0000000     0.0000000     0.0000000     0.0000000     0.0000000     0.0000000     0.0000000
     0.0000000     0.0000000     0.0000000     0.0000000     0.0000000     0.0000000     0.0000000
     0.0000000     0.0000000     0.0000000     0.0000000     0.0000000     0.0000000     0.0000000
     0.0000000     0.0000000     0.0000000     0.0000000     0.0000000     0.0000000     0.0000000

 total amount of memory used by VASP MPI-rank0    44646. kBytes
=======================================================================

   base      :      30000. kBytes
   nonl-proj :       2220. kBytes
   fftplans  :       1050. kBytes
   grid      :       3907. kBytes
   one-center:         32. kBytes
   wavefun   :       7437. kBytes
 
  
  
 General timing and accounting informations for this job:
 ========================================================
  
                  Total CPU time used (sec):        6.977
                            User time (sec):        6.527
                          System time (sec):        0.450
                         Elapsed time (sec):        7.906
  
                   Maximum memory used (kb):      160956.
                   Average memory used (kb):           0.
  
                          Minor page faults:        27339
                          Major page faults:            0
                 Voluntary context switches:         2626
