 running on   56 total cores
 distrk:  each k-point on   14 cores,    4 groups
 distr:  one band on    2 cores,    7 groups
 using from now: INCAR     
 vasp.5.4.4.18Apr17-6-g9f103f2a35 (build Nov 08 2017 12:56:59) complex          
  
 POSCAR found type information on POSCAR  In As
 POSCAR found :  2 types and       2 ions
 scaLAPACK will be used

 ----------------------------------------------------------------------------- 
|                                                                             |
|           W    W    AA    RRRRR   N    N  II  N    N   GGGG   !!!           |
|           W    W   A  A   R    R  NN   N  II  NN   N  G    G  !!!           |
|           W    W  A    A  R    R  N N  N  II  N N  N  G       !!!           |
|           W WW W  AAAAAA  RRRRR   N  N N  II  N  N N  G  GGG   !            |
|           WW  WW  A    A  R   R   N   NN  II  N   NN  G    G                |
|           W    W  A    A  R    R  N    N  II  N    N   GGGG   !!!           |
|                                                                             |
|      For optimal performance we recommend to set                            |
|        NCORE= 4 - approx SQRT( number of cores)                             |
|      NCORE specifies how many cores store one orbital (NPAR=cpu/NCORE).     |
|      This setting can  greatly improve the performance of VASP for DFT.     |
|      The default,   NCORE=1            might be grossly inefficient         |
|      on modern multi-core architectures or massively parallel machines.     |
|      Do your own testing !!!!                                               |
|      Unfortunately you need to use the default for GW and RPA calculations. |
|      (for HF NCORE is supported but not extensively tested yet)             |
|                                                                             |
 ----------------------------------------------------------------------------- 


 ----------------------------------------------------------------------------- 
|                                                                             |
|           W    W    AA    RRRRR   N    N  II  N    N   GGGG   !!!           |
|           W    W   A  A   R    R  NN   N  II  NN   N  G    G  !!!           |
|           W    W  A    A  R    R  N N  N  II  N N  N  G       !!!           |
|           W WW W  AAAAAA  RRRRR   N  N N  II  N  N N  G  GGG   !            |
|           WW  WW  A    A  R   R   N   NN  II  N   NN  G    G                |
|           W    W  A    A  R    R  N    N  II  N    N   GGGG   !!!           |
|                                                                             |
|      You have enabled k-point parallelism (KPAR>1).                         |
|      This developmental code was originally  written by Paul Kent at ORNL,  |
|      and carefully double checked in Vienna.                                |
|      GW as well as linear response parallelism added by Martijn Marsman     |
|      and Georg Kresse.                                                      |
|      Carefully verify results versus KPAR=1.                                |
|      Report problems to Paul Kent and Vienna.                               |
|                                                                             |
 ----------------------------------------------------------------------------- 

 LDA part: xc-table for Pade appr. of Perdew

 ----------------------------------------------------------------------------- 
|                                                                             |
|           W    W    AA    RRRRR   N    N  II  N    N   GGGG   !!!           |
|           W    W   A  A   R    R  NN   N  II  NN   N  G    G  !!!           |
|           W    W  A    A  R    R  N N  N  II  N N  N  G       !!!           |
|           W WW W  AAAAAA  RRRRR   N  N N  II  N  N N  G  GGG   !            |
|           WW  WW  A    A  R   R   N   NN  II  N   NN  G    G                |
|           W    W  A    A  R    R  N    N  II  N    N   GGGG   !!!           |
|                                                                             |
|      The number of bands has been changed from the values supplied          |
|      in the INCAR file. This is a result of running the parallel version.   |
|      The orbitals not found in the WAVECAR file will be initialized with    |
|      random numbers, which is usually adequate. For correlated              |
|      calculations, however, you should redo the groundstate calculation.    |
|      I found NBANDS    =       15  now  NBANDS  =      21                   |
|                                                                             |
 ----------------------------------------------------------------------------- 

 POSCAR, INCAR and KPOINTS ok, starting setup
 FFT: planning ...
 WAVECAR not read
 entering main loop
       N       E                     dE             d eps       ncg     rms          rms(c)
DAV:   1     0.190083212205E+02    0.19008E+02   -0.25122E+03  1260   0.483E+02
DAV:   2    -0.665290126371E+01   -0.25661E+02   -0.24682E+02  1554   0.855E+01
DAV:   3    -0.795342563680E+01   -0.13005E+01   -0.12974E+01  1596   0.203E+01
DAV:   4    -0.796248196067E+01   -0.90563E-02   -0.90558E-02  1442   0.205E+00
DAV:   5    -0.796253246120E+01   -0.50501E-04   -0.50500E-04  1659   0.158E-01    0.488E+00
RMM:   6    -0.784344635683E+01    0.11909E+00   -0.22367E-02  1261   0.646E-01    0.317E+00
RMM:   7    -0.766028797888E+01    0.18316E+00   -0.16144E-01  1268   0.171E+00    0.145E+00
RMM:   8    -0.765712683019E+01    0.31611E-02   -0.75900E-03  1424   0.391E-01    0.113E+00
RMM:   9    -0.766210037057E+01   -0.49735E-02   -0.18323E-02  1293   0.611E-01    0.219E-01
RMM:  10    -0.766409316810E+01   -0.19928E-02   -0.23783E-03  1339   0.254E-01    0.148E-01
RMM:  11    -0.766548145219E+01   -0.13883E-02   -0.15257E-03  1279   0.216E-01    0.136E-01
RMM:  12    -0.766552186796E+01   -0.40416E-04   -0.31792E-04  1327   0.102E-01    0.905E-02
RMM:  13    -0.766552700283E+01   -0.51349E-05   -0.50384E-05  1410   0.392E-02
   1 F= -.76655270E+01 E0= -.76654448E+01  d E =-.164487E-03  mag=     0.0000     0.0000    -0.0000
 writing wavefunctions
