<?xml version="1.0" encoding="ISO-8859-1"?>
<modeling>
 <generator>
  <i name="program" type="string">vasp </i>
  <i name="version" type="string">5.4.4.18Apr17-6-g9f103f2a35  </i>
  <i name="subversion" type="string">(build Nov 08 2017 12:56:59) complex            parallel </i>
  <i name="platform" type="string">LinuxIFC </i>
  <i name="date" type="string">2020 06 22 </i>
  <i name="time" type="string">19:30:35 </i>
 </generator>
 <incar>
  <i type="int" name="ISTART">     0</i>
  <i type="string" name="PREC">n</i>
  <i type="string" name="ALGO"> D</i>
  <i type="logical" name="LSORBIT"> T  </i>
  <v name="SAXIS">      0.00000000      0.00000000      1.00000000</v>
  <i type="int" name="ISPIN">     2</i>
  <i type="int" name="ICHARG">     2</i>
  <i name="EDIFF">      0.00010000</i>
  <i name="ENCUT">    300.00000000</i>
  <v name="MAGMOM">      0.00000000      0.00000000      0.00000000      0.00000000      0.00000000      0.00000000</v>
  <i name="SIGMA">      0.05000000</i>
  <v type="int" name="KPOINT_BSE">    -1     0     0     0</v>
  <i type="string" name="GGA"> PE</i>
 </incar>
 <structure name="primitive_cell" >
  <crystal>
   <varray name="basis" >
    <v>       0.00000000       3.02920000       3.02920000 </v>
    <v>       3.02920000       0.00000000       3.02920000 </v>
    <v>       3.02920000       3.02920000       0.00000000 </v>
   </varray>
   <i name="volume">     55.59219731 </i>
   <varray name="rec_basis" >
    <v>      -0.16506008       0.16506008       0.16506008 </v>
    <v>       0.16506008      -0.16506008       0.16506008 </v>
    <v>       0.16506008       0.16506008      -0.16506008 </v>
   </varray>
  </crystal>
  <varray name="positions" >
   <v>       0.00000000       0.00000000       0.00000000 </v>
   <v>       0.25000000       0.25000000       0.25000000 </v>
  </varray>
 </structure>
 <varray name="primitive_index" >
  <v type="int" >        1 </v>
  <v type="int" >        2 </v>
 </varray>
 <kpoints>
  <generation param="Gamma">
   <v type="int" name="divisions">       6        6        6 </v>
   <v name="usershift">      0.00000000       0.00000000       0.00000000 </v>
   <v name="genvec1">      0.16666667       0.00000000       0.00000000 </v>
   <v name="genvec2">      0.00000000       0.16666667       0.00000000 </v>
   <v name="genvec3">      0.00000000       0.00000000       0.16666667 </v>
   <v name="shift">      0.00000000       0.00000000       0.00000000 </v>
  </generation>
  <varray name="kpointlist" >
   <v>       0.00000000       0.00000000       0.00000000 </v>
   <v>       0.16666667       0.00000000       0.00000000 </v>
   <v>       0.33333333       0.00000000       0.00000000 </v>
   <v>       0.50000000       0.00000000       0.00000000 </v>
   <v>      -0.33333333       0.00000000       0.00000000 </v>
   <v>      -0.16666667       0.00000000       0.00000000 </v>
   <v>       0.16666667       0.16666667       0.00000000 </v>
   <v>       0.33333333       0.16666667       0.00000000 </v>
   <v>       0.50000000       0.16666667       0.00000000 </v>
   <v>      -0.33333333       0.16666667       0.00000000 </v>
   <v>      -0.16666667       0.16666667       0.00000000 </v>
   <v>       0.33333333       0.33333333       0.00000000 </v>
   <v>       0.50000000       0.33333333       0.00000000 </v>
   <v>      -0.33333333       0.33333333       0.00000000 </v>
   <v>      -0.16666667       0.33333333       0.00000000 </v>
   <v>       0.50000000       0.50000000       0.00000000 </v>
   <v>      -0.33333333       0.50000000       0.00000000 </v>
   <v>      -0.16666667       0.50000000       0.00000000 </v>
   <v>      -0.16666667      -0.33333333       0.00000000 </v>
   <v>       0.50000000       0.33333333       0.16666667 </v>
   <v>      -0.33333333       0.33333333       0.16666667 </v>
   <v>      -0.33333333       0.50000000       0.16666667 </v>
  </varray>
  <varray name="weights" >
   <v>       0.00462963 </v>
   <v>       0.01851852 </v>
   <v>       0.01851852 </v>
   <v>       0.01851852 </v>
   <v>       0.01851852 </v>
   <v>       0.01851852 </v>
   <v>       0.02777778 </v>
   <v>       0.05555556 </v>
   <v>       0.05555556 </v>
   <v>       0.05555556 </v>
   <v>       0.05555556 </v>
   <v>       0.02777778 </v>
   <v>       0.05555556 </v>
   <v>       0.05555556 </v>
   <v>       0.05555556 </v>
   <v>       0.01388889 </v>
   <v>       0.05555556 </v>
   <v>       0.05555556 </v>
   <v>       0.05555556 </v>
   <v>       0.11111111 </v>
   <v>       0.11111111 </v>
   <v>       0.05555556 </v>
  </varray>
 </kpoints>
 <parameters>
  <separator name="general" >
   <i type="string" name="SYSTEM">unknown system</i>
   <i type="logical" name="LCOMPAT"> F  </i>
  </separator>
  <separator name="electronic" >
   <i type="string" name="PREC">n</i>
   <i name="ENMAX">    300.00000000</i>
   <i name="ENAUG">    462.75800000</i>
   <i name="EDIFF">      0.00010000</i>
   <i type="int" name="IALGO">    53</i>
   <i type="int" name="IWAVPR">    10</i>
   <i type="int" name="NBANDS">    56</i>
   <i name="NELECT">      8.00000000</i>
   <i type="int" name="TURBO">     0</i>
   <i type="int" name="IRESTART">     0</i>
   <i type="int" name="NREBOOT">     0</i>
   <i type="int" name="NMIN">     0</i>
   <i name="EREF">      0.00000000</i>
   <separator name="electronic smearing" >
    <i type="int" name="ISMEAR">     1</i>
    <i name="SIGMA">      0.05000000</i>
    <i name="KSPACING">      0.50000000</i>
    <i type="logical" name="KGAMMA"> T  </i>
   </separator>
   <separator name="electronic projectors" >
    <i type="logical" name="LREAL"> F  </i>
    <v name="ROPT">      0.00000000      0.00000000</v>
    <i type="int" name="LMAXPAW">  -100</i>
    <i type="int" name="LMAXMIX">     2</i>
    <i type="logical" name="NLSPLINE"> F  </i>
   </separator>
   <separator name="electronic startup" >
    <i type="int" name="ISTART">     0</i>
    <i type="int" name="ICHARG">     2</i>
    <i type="int" name="INIWAV">     1</i>
   </separator>
   <separator name="electronic spin" >
    <i type="int" name="ISPIN">     1</i>
    <i type="logical" name="LNONCOLLINEAR"> T  </i>
    <v name="MAGMOM">      0.00000000      0.00000000      0.00000000      0.00000000      0.00000000      0.00000000</v>
    <i name="NUPDOWN">     -1.00000000</i>
    <i type="logical" name="LSORBIT"> T  </i>
    <v name="SAXIS">      0.00000000      0.00000000      1.00000000</v>
    <i type="logical" name="LSPIRAL"> F  </i>
    <v name="QSPIRAL">      0.00000000      0.00000000      0.00000000</v>
    <i type="logical" name="LZEROZ"> F  </i>
   </separator>
   <separator name="electronic exchange-correlation" >
    <i type="logical" name="LASPH"> F  </i>
    <i type="logical" name="LMETAGGA"> F  </i>
   </separator>
   <separator name="electronic convergence" >
    <i type="int" name="NELM">    60</i>
    <i type="int" name="NELMDL">    -5</i>
    <i type="int" name="NELMIN">     2</i>
    <i name="ENINI">    300.00000000</i>
    <separator name="electronic convergence detail" >
     <i type="logical" name="LDIAG"> T  </i>
     <i type="logical" name="LSUBROT"> F  </i>
     <i name="WEIMIN">      0.00000000</i>
     <i name="EBREAK">      0.00000045</i>
     <i name="DEPER">      0.30000000</i>
     <i type="int" name="NRMM">     4</i>
     <i name="TIME">      0.40000000</i>
    </separator>
   </separator>
   <separator name="electronic mixer" >
    <i name="AMIX">      0.40000000</i>
    <i name="BMIX">      1.00000000</i>
    <i name="AMIN">      0.10000000</i>
    <i name="AMIX_MAG">      1.60000000</i>
    <i name="BMIX_MAG">      1.00000000</i>
    <separator name="electronic mixer details" >
     <i type="int" name="IMIX">     4</i>
     <i type="logical" name="MIXFIRST"> F  </i>
     <i type="int" name="MAXMIX">   -45</i>
     <i name="WC">    100.00000000</i>
     <i type="int" name="INIMIX">     1</i>
     <i type="int" name="MIXPRE">     1</i>
     <i type="int" name="MREMOVE">     5</i>
    </separator>
   </separator>
   <separator name="electronic dipolcorrection" >
    <i type="logical" name="LDIPOL"> F  </i>
    <i type="logical" name="LMONO"> F  </i>
    <i type="int" name="IDIPOL">     0</i>
    <i name="EPSILON">      1.00000000</i>
    <v name="DIPOL">   -100.00000000   -100.00000000   -100.00000000</v>
    <i name="EFIELD">      0.00000000</i>
   </separator>
  </separator>
  <separator name="grids" >
   <i type="int" name="NGX">    18</i>
   <i type="int" name="NGY">    18</i>
   <i type="int" name="NGZ">    18</i>
   <i type="int" name="NGXF">    36</i>
   <i type="int" name="NGYF">    36</i>
   <i type="int" name="NGZF">    36</i>
   <i type="logical" name="ADDGRID"> F  </i>
  </separator>
  <separator name="ionic" >
   <i type="int" name="NSW">     0</i>
   <i type="int" name="IBRION">    -1</i>
   <i type="int" name="MDALGO">     0</i>
   <i type="int" name="ISIF">     2</i>
   <i name="PSTRESS">      0.00000000</i>
   <i name="EDIFFG">      0.00100000</i>
   <i type="int" name="NFREE">     0</i>
   <i name="POTIM">      0.50000000</i>
   <i name="SMASS">     -3.00000000</i>
   <i name="SCALEE">      1.00000000</i>
  </separator>
  <separator name="ionic md" >
   <i name="TEBEG">      0.00010000</i>
   <i name="TEEND">      0.00010000</i>
   <i type="int" name="NBLOCK">     1</i>
   <i type="int" name="KBLOCK">     1</i>
   <i type="int" name="NPACO">   256</i>
   <i name="APACO">     16.00000000</i>
  </separator>
  <separator name="symmetry" >
   <i type="int" name="ISYM">     2</i>
   <i name="SYMPREC">      0.00001000</i>
  </separator>
  <separator name="dos" >
   <i type="int" name="LORBIT">     0</i>
   <v name="RWIGS">     -1.00000000     -1.00000000</v>
   <i type="int" name="NEDOS">   301</i>
   <i name="EMIN">     10.00000000</i>
   <i name="EMAX">    -10.00000000</i>
   <i name="EFERMI">      0.00000000</i>
  </separator>
  <separator name="writing" >
   <i type="int" name="NWRITE">     2</i>
   <i type="logical" name="LWAVE"> T  </i>
   <i type="logical" name="LDOWNSAMPLE"> F  </i>
   <i type="logical" name="LCHARG"> T  </i>
   <i type="logical" name="LPARD"> F  </i>
   <i type="logical" name="LVTOT"> F  </i>
   <i type="logical" name="LVHAR"> F  </i>
   <i type="logical" name="LELF"> F  </i>
   <i type="logical" name="LOPTICS"> F  </i>
   <v name="STM">      0.00000000      0.00000000      0.00000000      0.00000000      0.00000000      0.00000000      0.00000000</v>
  </separator>
  <separator name="performance" >
   <i type="int" name="NPAR">    56</i>
   <i type="int" name="NSIM">     4</i>
   <i type="int" name="NBLK">    -1</i>
   <i type="logical" name="LPLANE"> T  </i>
   <i type="logical" name="LSCALAPACK"> T  </i>
   <i type="logical" name="LSCAAWARE"> T  </i>
   <i type="logical" name="LSCALU"> F  </i>
   <i type="logical" name="LASYNC"> F  </i>
   <i type="logical" name="LORBITALREAL"> F  </i>
  </separator>
  <separator name="miscellaneous" >
   <i type="int" name="IDIOT">     3</i>
   <i type="int" name="ISPECIAL">     0</i>
   <i type="logical" name="LMUSIC"> F  </i>
   <v name="POMASS">    114.82000000     74.92200000</v>
   <v name="DARWINR">      0.00000000      0.00000000</v>
   <v name="DARWINV">      1.00000000      1.00000000</v>
   <i type="logical" name="LCORR"> T  </i>
  </separator>
  <i type="logical" name="GGA_COMPAT"> T  </i>
  <i type="logical" name="LBERRY"> F  </i>
  <i type="int" name="ICORELEVEL">     0</i>
  <i type="logical" name="LDAU"> F  </i>
  <i type="int" name="I_CONSTRAINED_M">     0</i>
  <separator name="electronic exchange-correlation" >
   <i type="string" name="GGA">PE</i>
   <i type="int" name="VOSKOWN">     0</i>
   <i type="logical" name="LHFCALC"> F  </i>
   <i type="string" name="PRECFOCK"></i>
   <i type="logical" name="LSYMGRAD"> F  </i>
   <i type="logical" name="LHFONE"> F  </i>
   <i type="logical" name="LRHFCALC"> F  </i>
   <i type="logical" name="LTHOMAS"> F  </i>
   <i type="logical" name="LMODELHF"> F  </i>
   <i name="ENCUT4O">     -1.00000000</i>
   <i type="int" name="EXXOEP">     0</i>
   <i type="int" name="FOURORBIT">     0</i>
   <i name="AEXX">      0.00000000</i>
   <i name="HFALPHA">      0.00000000</i>
   <i name="MCALPHA">      0.00000000</i>
   <i name="ALDAX">      1.00000000</i>
   <i name="AGGAX">      1.00000000</i>
   <i name="ALDAC">      1.00000000</i>
   <i name="AGGAC">      1.00000000</i>
   <i type="int" name="NKREDX">     1</i>
   <i type="int" name="NKREDY">     1</i>
   <i type="int" name="NKREDZ">     1</i>
   <i type="logical" name="SHIFTRED"> F  </i>
   <i type="logical" name="ODDONLY"> F  </i>
   <i type="logical" name="EVENONLY"> F  </i>
   <i type="int" name="LMAXFOCK">     0</i>
   <i type="int" name="NMAXFOCKAE">     0</i>
   <i type="logical" name="LFOCKAEDFT"> F  </i>
   <i name="HFSCREEN">      0.00000000</i>
   <i name="HFSCREENC">      0.00000000</i>
   <i type="int" name="NBANDSGWLOW">     0</i>
  </separator>
  <separator name="vdW DFT" >
   <i type="logical" name="LUSE_VDW"> F  </i>
   <i name="Zab_VDW">     -0.84910000</i>
   <i name="PARAM1">      0.12340000</i>
   <i name="PARAM2">      1.00000000</i>
   <i name="PARAM3">      0.00000000</i>
  </separator>
  <separator name="model GW" >
   <i type="int" name="MODEL_GW">     0</i>
   <i name="MODEL_EPS0">     16.67765919</i>
   <i name="MODEL_ALPHA">      1.00000000</i>
  </separator>
  <separator name="linear response parameters" >
   <i type="logical" name="LEPSILON"> F  </i>
   <i type="logical" name="LRPA"> F  </i>
   <i type="logical" name="LNABLA"> F  </i>
   <i type="logical" name="LVEL"> F  </i>
   <i type="int" name="KINTER">     0</i>
   <i name="CSHIFT">      0.10000000</i>
   <i name="OMEGAMAX">     -1.00000000</i>
   <i name="DEG_THRESHOLD">      0.00200000</i>
   <i name="RTIME">     -0.10000000</i>
   <i name="WPLASMAI">      0.00000000</i>
   <v name="DFIELD">      0.00000000      0.00000000      0.00000000</v>
   <v name="WPLASMA">      0.00000000      0.00000000      0.00000000      0.00000000      0.00000000      0.00000000      0.00000000      0.00000000      0.00000000</v>
  </separator>
  <separator name="orbital magnetization" >
   <i type="logical" name="NUCIND"> F  </i>
   <v name="MAGPOS">      0.00000000      0.00000000      0.00000000</v>
   <i type="logical" name="LNICSALL"> T  </i>
   <i type="logical" name="ORBITALMAG"> F  </i>
   <i type="logical" name="LMAGBLOCH"> F  </i>
   <i type="logical" name="LCHIMAG"> F  </i>
   <i type="logical" name="LGAUGE"> T  </i>
   <i type="int" name="MAGATOM">     0</i>
   <v name="MAGDIPOL">      0.00000000      0.00000000      0.00000000</v>
   <v name="AVECCONST">      0.00000000      0.00000000      0.00000000</v>
  </separator>
  <separator name="response functions" >
   <i type="logical" name="LADDER"> F  </i>
   <i type="logical" name="LRPAFORCE"> F  </i>
   <i type="logical" name="LFXC"> F  </i>
   <i type="logical" name="LHARTREE"> T  </i>
   <i type="int" name="IBSE">     0</i>
   <v type="int" name="KPOINT">    -1     0     0     0</v>
   <i type="logical" name="LTCTE"> F  </i>
   <i type="logical" name="LTETE"> F  </i>
   <i type="logical" name="LTRIPLET"> F  </i>
   <i type="logical" name="LFXCEPS"> F  </i>
   <i type="logical" name="LFXHEG"> F  </i>
   <i type="int" name="NATURALO">     2</i>
   <i type="logical" name="L2ORDER"> F  </i>
   <i type="logical" name="LMP2LT"> F  </i>
   <i type="logical" name="LUSEW"> F  </i>
   <i name="ENCUTGW">     -2.00000000</i>
   <i name="ENCUTGWSOFT">     -2.00000000</i>
   <i name="ENCUTLF">     -1.00000000</i>
   <i type="int" name="LMAXMP2">    -1</i>
   <i name="SCISSOR">      0.00000000</i>
   <i type="int" name="NOMEGA">     0</i>
   <i type="int" name="NOMEGAR">     0</i>
   <i type="int" name="NBANDSGW">    -1</i>
   <i type="int" name="NBANDSO">    -1</i>
   <i type="int" name="NBANDSV">    -1</i>
   <i type="int" name="NELM">     1</i>
   <i type="int" name="NELMHF">     1</i>
   <i type="int" name="DIM">     3</i>
   <i type="int" name="ANTIRES">     0</i>
   <i name="OMEGAMAX">    -30.00000000</i>
   <i name="OMEGAMIN">    -30.00000000</i>
   <i name="OMEGATL">   -200.00000000</i>
   <i type="int" name="OMEGAGRID">   140</i>
   <i name="CSHIFT">     -0.10000000</i>
   <i type="logical" name="SELFENERGY"> F  </i>
   <i type="logical" name="LSPECTRAL"> F  </i>
   <i type="logical" name="LSPECTRALGW"> F  </i>
   <i type="logical" name="LSINGLES"> F  </i>
   <i type="logical" name="LFERMIGW"> F  </i>
   <i type="logical" name="ODDONLYGW"> F  </i>
   <i type="logical" name="EVENONLYGW"> F  </i>
   <i type="int" name="NKREDLFX">     1</i>
   <i type="int" name="NKREDLFY">     1</i>
   <i type="int" name="NKREDLFZ">     1</i>
   <i type="int" name="MAXMEM">  2800</i>
   <i type="int" name="TELESCOPE">     0</i>
   <i type="int" name="TAUPAR">     1</i>
   <i type="int" name="OMEGAPAR">    -1</i>
   <i name="LAMBDA">      1.00000000</i>
  </separator>
  <separator name="External order field" >
   <i name="OFIELD_KAPPA">      0.00000000</i>
   <v name="OFIELD_K">      0.00000000      0.00000000      0.00000000</v>
   <i name="OFIELD_Q6_NEAR">      0.00000000</i>
   <i name="OFIELD_Q6_FAR">      0.00000000</i>
   <i name="OFIELD_A">      0.00000000</i>
  </separator>
 </parameters>
 <atominfo>
  <atoms>       2 </atoms>
  <types>       2 </types>
  <array name="atoms" >
   <dimension dim="1">ion</dimension>
   <field type="string">element</field>
   <field type="int">atomtype</field>
   <set>
    <rc><c>In</c><c>   1</c></rc>
    <rc><c>As</c><c>   2</c></rc>
   </set>
  </array>
  <array name="atomtypes" >
   <dimension dim="1">type</dimension>
   <field type="int">atomspertype</field>
   <field type="string">element</field>
   <field>mass</field>
   <field>valence</field>
   <field type="string">pseudopotential</field>
   <set>
    <rc><c>   1</c><c>In</c><c>    114.82000000</c><c>      3.00000000</c><c>  PAW_PBE In 08Apr2002                  </c></rc>
    <rc><c>   1</c><c>As</c><c>     74.92200000</c><c>      5.00000000</c><c>  PAW_PBE As 22Sep2009                  </c></rc>
   </set>
  </array>
 </atominfo>
 <structure name="initialpos" >
  <crystal>
   <varray name="basis" >
    <v>       0.00000000       3.02920000       3.02920000 </v>
    <v>       3.02920000       0.00000000       3.02920000 </v>
    <v>       3.02920000       3.02920000       0.00000000 </v>
   </varray>
   <i name="volume">     55.59219731 </i>
   <varray name="rec_basis" >
    <v>      -0.16506008       0.16506008       0.16506008 </v>
    <v>       0.16506008      -0.16506008       0.16506008 </v>
    <v>       0.16506008       0.16506008      -0.16506008 </v>
   </varray>
  </crystal>
  <varray name="positions" >
   <v>       0.00000000       0.00000000       0.00000000 </v>
   <v>       0.25000000       0.25000000       0.25000000 </v>
  </varray>
 </structure>
 <calculation>
  <scstep>
   <time name="total">    1.53    1.54</time>
   <energy>
    <i name="alphaZ">      6.67624893 </i>
    <i name="ewald">   -213.84743004 </i>
    <i name="hartreedc">    -21.29595069 </i>
    <i name="XCdc">    -67.69638858 </i>
    <i name="pawpsdc">    241.28716127 </i>
    <i name="pawaedc">   -160.47085023 </i>
    <i name="eentropy">      0.00004589 </i>
    <i name="bandstr">     -2.85259131 </i>
    <i name="atom">    223.97520926 </i>
    <i name="e_fr_energy">      5.77545451 </i>
    <i name="e_wo_entrp">      5.77540862 </i>
    <i name="e_0_energy">      5.77543922 </i>
   </energy>
  </scstep>
  <scstep>
   <time name="total">    2.76    2.77</time>
   <energy>
    <i name="e_fr_energy">     -7.82530929 </i>
    <i name="e_wo_entrp">     -7.82529699 </i>
    <i name="e_0_energy">     -7.82530519 </i>
   </energy>
  </scstep>
  <scstep>
   <time name="total">    2.78    2.78</time>
   <energy>
    <i name="e_fr_energy">     -7.95305873 </i>
    <i name="e_wo_entrp">     -7.95305737 </i>
    <i name="e_0_energy">     -7.95305827 </i>
   </energy>
  </scstep>
  <scstep>
   <time name="total">    2.75    2.76</time>
   <energy>
    <i name="e_fr_energy">     -7.95402851 </i>
    <i name="e_wo_entrp">     -7.95402597 </i>
    <i name="e_0_energy">     -7.95402766 </i>
   </energy>
  </scstep>
  <scstep>
   <time name="total">    2.81    2.81</time>
   <energy>
    <i name="e_fr_energy">     -7.95403924 </i>
    <i name="e_wo_entrp">     -7.95403668 </i>
    <i name="e_0_energy">     -7.95403838 </i>
   </energy>
  </scstep>
  <scstep>
   <time name="total">    0.28    0.29</time>
   <energy>
    <i name="e_fr_energy">     -7.38224255 </i>
    <i name="e_wo_entrp">     -7.38213970 </i>
    <i name="e_0_energy">     -7.38220826 </i>
   </energy>
  </scstep>
  <scstep>
   <time name="total">    0.27    0.27</time>
   <energy>
    <i name="e_fr_energy">     -7.55061494 </i>
    <i name="e_wo_entrp">     -7.55048434 </i>
    <i name="e_0_energy">     -7.55057141 </i>
   </energy>
  </scstep>
  <scstep>
   <time name="total">    0.27    0.27</time>
   <energy>
    <i name="e_fr_energy">     -7.63386755 </i>
    <i name="e_wo_entrp">     -7.63373695 </i>
    <i name="e_0_energy">     -7.63382402 </i>
   </energy>
  </scstep>
  <scstep>
   <time name="total">    0.27    0.27</time>
   <energy>
    <i name="e_fr_energy">     -7.65160265 </i>
    <i name="e_wo_entrp">     -7.65147205 </i>
    <i name="e_0_energy">     -7.65155912 </i>
   </energy>
  </scstep>
  <scstep>
   <time name="total">    0.27    0.28</time>
   <energy>
    <i name="e_fr_energy">     -7.65305121 </i>
    <i name="e_wo_entrp">     -7.65292061 </i>
    <i name="e_0_energy">     -7.65300768 </i>
   </energy>
  </scstep>
  <scstep>
   <time name="total">    0.27    0.27</time>
   <energy>
    <i name="e_fr_energy">     -7.65390238 </i>
    <i name="e_wo_entrp">     -7.65377178 </i>
    <i name="e_0_energy">     -7.65385884 </i>
   </energy>
  </scstep>
  <scstep>
   <time name="total">    0.27    0.27</time>
   <energy>
    <i name="e_fr_energy">     -7.65473357 </i>
    <i name="e_wo_entrp">     -7.65460297 </i>
    <i name="e_0_energy">     -7.65469004 </i>
   </energy>
  </scstep>
  <scstep>
   <time name="total">    0.27    0.27</time>
   <energy>
    <i name="e_fr_energy">     -7.65512488 </i>
    <i name="e_wo_entrp">     -7.65499428 </i>
    <i name="e_0_energy">     -7.65508135 </i>
   </energy>
  </scstep>
  <scstep>
   <time name="total">    0.27    0.27</time>
   <energy>
    <i name="e_fr_energy">     -7.65526215 </i>
    <i name="e_wo_entrp">     -7.65513156 </i>
    <i name="e_0_energy">     -7.65521862 </i>
   </energy>
  </scstep>
  <scstep>
   <time name="total">    0.42    0.43</time>
   <energy>
    <i name="alphaZ">      6.67624893 </i>
    <i name="ewald">   -213.84743004 </i>
    <i name="hartreedc">    -25.60743368 </i>
    <i name="XCdc">    -66.88052954 </i>
    <i name="pawpsdc">    533.06429625 </i>
    <i name="pawaedc">   -452.76389935 </i>
    <i name="eentropy">     -0.00013060 </i>
    <i name="bandstr">    -12.27164432 </i>
    <i name="atom">    223.97520926 </i>
    <i name="e_fr_energy">     -7.65531310 </i>
    <i name="e_wo_entrp">     -7.65518250 </i>
    <i name="e_0_energy">     -7.65526957 </i>
   </energy>
  </scstep>
  <structure>
   <crystal>
    <varray name="basis" >
     <v>       0.00000000       3.02920000       3.02920000 </v>
     <v>       3.02920000       0.00000000       3.02920000 </v>
     <v>       3.02920000       3.02920000       0.00000000 </v>
    </varray>
    <i name="volume">     55.59219731 </i>
    <varray name="rec_basis" >
     <v>      -0.16506008       0.16506008       0.16506008 </v>
     <v>       0.16506008      -0.16506008       0.16506008 </v>
     <v>       0.16506008       0.16506008      -0.16506008 </v>
    </varray>
   </crystal>
   <varray name="positions" >
    <v>       0.00000000       0.00000000       0.00000000 </v>
    <v>       0.25000000       0.25000000       0.25000000 </v>
   </varray>
  </structure>
  <varray name="forces" >
   <v>       0.00000000       0.00000000      -0.00000000 </v>
   <v>      -0.00000000      -0.00000000       0.00000000 </v>
  </varray>
  <varray name="stress" >
   <v>      45.10530387       0.00000000       0.00000000 </v>
   <v>       0.00000000      45.10530387      -0.00000000 </v>
   <v>       0.00000000      -0.00000000      45.10530387 </v>
  </varray>
  <energy>
   <i name="e_fr_energy">     -7.65531310 </i>
   <i name="e_wo_entrp">     -7.65526957 </i>
   <i name="e_0_energy">     -0.00013060 </i>
  </energy>
  <time name="totalsc">   16.10   16.55</time>
  <eigenvalues>
   <array>
    <dimension dim="1">band</dimension>
    <dimension dim="2">kpoint</dimension>
    <dimension dim="3">spin</dimension>
    <field>eigene</field>
    <field>occ</field>
    <set>
     <set comment="spin 1">
      <set comment="kpoint 1">
       <r>   -8.5351    1.0000 </r>
       <r>   -8.5351    1.0000 </r>
       <r>    3.0331    1.0000 </r>
       <r>    3.0331    1.0000 </r>
       <r>    3.0996    1.0000 </r>
       <r>    3.0996    1.0000 </r>
       <r>    3.3857    0.5001 </r>
       <r>    3.3857    0.5001 </r>
       <r>    3.3857    0.4999 </r>
       <r>    3.3857    0.4999 </r>
       <r>    6.9075    0.0000 </r>
       <r>    6.9075    0.0000 </r>
       <r>    7.3573    0.0000 </r>
       <r>    7.3573    0.0000 </r>
       <r>    7.3573    0.0000 </r>
       <r>    7.3573    0.0000 </r>
       <r>   10.7904    0.0000 </r>
       <r>   10.7904    0.0000 </r>
       <r>   12.7784    0.0000 </r>
       <r>   12.7784    0.0000 </r>
       <r>   12.7784    0.0000 </r>
       <r>   12.7784    0.0000 </r>
       <r>   13.6230    0.0000 </r>
       <r>   13.6230    0.0000 </r>
       <r>   13.6561    0.0000 </r>
       <r>   13.6561    0.0000 </r>
       <r>   13.6561    0.0000 </r>
       <r>   13.6561    0.0000 </r>
       <r>   16.2041    0.0000 </r>
       <r>   16.2041    0.0000 </r>
       <r>   24.5411    0.0000 </r>
       <r>   24.5411    0.0000 </r>
       <r>   24.5411    0.0000 </r>
       <r>   24.5411    0.0000 </r>
       <r>   24.7319    0.0000 </r>
       <r>   24.7319    0.0000 </r>
       <r>   25.6919    0.0000 </r>
       <r>   25.6919    0.0000 </r>
       <r>   25.7901    0.0000 </r>
       <r>   25.7901    0.0000 </r>
       <r>   25.7901    0.0000 </r>
       <r>   25.7901    0.0000 </r>
       <r>   25.8312    0.0000 </r>
       <r>   25.8312    0.0000 </r>
       <r>   25.8312    0.0000 </r>
       <r>   25.8312    0.0000 </r>
       <r>   25.8312    0.0000 </r>
       <r>   25.8312    0.0000 </r>
       <r>   26.2416    0.0000 </r>
       <r>   26.2416    0.0000 </r>
       <r>   26.2416    0.0000 </r>
       <r>   26.2416    0.0000 </r>
       <r>   33.3141    0.0000 </r>
       <r>   33.3930    0.0000 </r>
       <r>   33.4573    0.0000 </r>
       <r>   33.7412    0.0000 </r>
      </set>
      <set comment="kpoint 2">
       <r>   -8.2937    1.0000 </r>
       <r>   -8.2937    1.0000 </r>
       <r>    0.7688    1.0000 </r>
       <r>    0.7688    1.0000 </r>
       <r>    2.8352    1.0000 </r>
       <r>    2.8352    1.0000 </r>
       <r>    3.0744    1.0000 </r>
       <r>    3.0819    1.0000 </r>
       <r>    4.5363   -0.0000 </r>
       <r>    4.5363   -0.0000 </r>
       <r>    7.4345    0.0000 </r>
       <r>    7.4345    0.0000 </r>
       <r>    7.6751    0.0000 </r>
       <r>    7.6751    0.0000 </r>
       <r>    7.7898    0.0000 </r>
       <r>    7.7914    0.0000 </r>
       <r>   11.7500    0.0000 </r>
       <r>   11.7811    0.0000 </r>
       <r>   11.7811    0.0000 </r>
       <r>   11.8164    0.0000 </r>
       <r>   11.8553    0.0000 </r>
       <r>   11.8553    0.0000 </r>
       <r>   13.2579    0.0000 </r>
       <r>   13.2579    0.0000 </r>
       <r>   15.6451    0.0000 </r>
       <r>   15.6522    0.0000 </r>
       <r>   15.6522    0.0000 </r>
       <r>   15.7130    0.0000 </r>
       <r>   18.1533    0.0000 </r>
       <r>   18.1533    0.0000 </r>
       <r>   21.3172    0.0000 </r>
       <r>   21.3172    0.0000 </r>
       <r>   21.4569    0.0000 </r>
       <r>   21.5009    0.0000 </r>
       <r>   21.8643    0.0000 </r>
       <r>   21.8643    0.0000 </r>
       <r>   25.1309    0.0000 </r>
       <r>   25.1932    0.0000 </r>
       <r>   25.3857    0.0000 </r>
       <r>   25.3857    0.0000 </r>
       <r>   26.0143    0.0000 </r>
       <r>   26.0143    0.0000 </r>
       <r>   26.0543    0.0000 </r>
       <r>   26.0543    0.0000 </r>
       <r>   26.2676    0.0000 </r>
       <r>   26.2783    0.0000 </r>
       <r>   27.3621    0.0000 </r>
       <r>   27.3622    0.0000 </r>
       <r>   29.8080    0.0000 </r>
       <r>   29.8105    0.0000 </r>
       <r>   29.8751    0.0000 </r>
       <r>   29.9255    0.0000 </r>
       <r>   30.4852    0.0000 </r>
       <r>   30.5168    0.0000 </r>
       <r>   31.9704    0.0000 </r>
       <r>   32.1983    0.0000 </r>
      </set>
      <set comment="kpoint 3">
       <r>   -7.6855    1.0000 </r>
       <r>   -7.6855    1.0000 </r>
       <r>   -1.4392    1.0000 </r>
       <r>   -1.4392    1.0000 </r>
       <r>    2.3575    1.0000 </r>
       <r>    2.3575    1.0000 </r>
       <r>    2.6051    1.0000 </r>
       <r>    2.6112    1.0000 </r>
       <r>    4.4060   -0.0000 </r>
       <r>    4.4060   -0.0000 </r>
       <r>    7.8974    0.0000 </r>
       <r>    7.8974    0.0000 </r>
       <r>    8.1105    0.0000 </r>
       <r>    8.1129    0.0000 </r>
       <r>    9.4132    0.0000 </r>
       <r>    9.4132    0.0000 </r>
       <r>   11.4135    0.0000 </r>
       <r>   11.4135    0.0000 </r>
       <r>   12.2296    0.0000 </r>
       <r>   12.2296    0.0000 </r>
       <r>   12.2665    0.0000 </r>
       <r>   12.3277    0.0000 </r>
       <r>   16.0125    0.0000 </r>
       <r>   16.0125    0.0000 </r>
       <r>   17.6947    0.0000 </r>
       <r>   17.6947    0.0000 </r>
       <r>   17.7906    0.0000 </r>
       <r>   17.8544    0.0000 </r>
       <r>   18.4656    0.0000 </r>
       <r>   18.4656    0.0000 </r>
       <r>   18.7495    0.0000 </r>
       <r>   18.7495    0.0000 </r>
       <r>   18.7568    0.0000 </r>
       <r>   18.8096    0.0000 </r>
       <r>   21.8022    0.0000 </r>
       <r>   21.8022    0.0000 </r>
       <r>   25.2005    0.0000 </r>
       <r>   25.3661    0.0000 </r>
       <r>   25.4242    0.0000 </r>
       <r>   25.4242    0.0000 </r>
       <r>   25.6832    0.0000 </r>
       <r>   25.6832    0.0000 </r>
       <r>   26.3708    0.0000 </r>
       <r>   26.3709    0.0000 </r>
       <r>   26.4209    0.0000 </r>
       <r>   26.4915    0.0000 </r>
       <r>   26.6005    0.0000 </r>
       <r>   26.6008    0.0000 </r>
       <r>   27.4808    0.0000 </r>
       <r>   27.4816    0.0000 </r>
       <r>   27.5942    0.0000 </r>
       <r>   27.6129    0.0000 </r>
       <r>   28.9168    0.0000 </r>
       <r>   28.9196    0.0000 </r>
       <r>   31.1928    0.0000 </r>
       <r>   31.3660    0.0000 </r>
      </set>
      <set comment="kpoint 4">
       <r>   -7.2676    1.0000 </r>
       <r>   -7.2676    1.0000 </r>
       <r>   -2.4328    1.0000 </r>
       <r>   -2.4328    1.0000 </r>
       <r>    2.1628    1.0000 </r>
       <r>    2.1628    1.0000 </r>
       <r>    2.4162    1.0000 </r>
       <r>    2.4162    1.0000 </r>
       <r>    4.2536   -0.0000 </r>
       <r>    4.2536   -0.0000 </r>
       <r>    7.8805    0.0000 </r>
       <r>    7.8805    0.0000 </r>
       <r>    8.0501    0.0000 </r>
       <r>    8.0501    0.0000 </r>
       <r>   10.1118    0.0000 </r>
       <r>   10.1118    0.0000 </r>
       <r>   12.2918    0.0000 </r>
       <r>   12.2918    0.0000 </r>
       <r>   13.8821    0.0000 </r>
       <r>   13.8821    0.0000 </r>
       <r>   14.0421    0.0000 </r>
       <r>   14.0421    0.0000 </r>
       <r>   14.9496    0.0000 </r>
       <r>   14.9496    0.0000 </r>
       <r>   15.1718    0.0000 </r>
       <r>   15.1718    0.0000 </r>
       <r>   15.2517    0.0000 </r>
       <r>   15.2517    0.0000 </r>
       <r>   20.6994    0.0000 </r>
       <r>   20.6994    0.0000 </r>
       <r>   21.9324    0.0000 </r>
       <r>   21.9324    0.0000 </r>
       <r>   22.0257    0.0000 </r>
       <r>   22.0257    0.0000 </r>
       <r>   22.0567    0.0000 </r>
       <r>   22.0567    0.0000 </r>
       <r>   22.7582    0.0000 </r>
       <r>   22.7582    0.0000 </r>
       <r>   22.7833    0.0000 </r>
       <r>   22.7833    0.0000 </r>
       <r>   25.3335    0.0000 </r>
       <r>   25.3335    0.0000 </r>
       <r>   26.0857    0.0000 </r>
       <r>   26.0858    0.0000 </r>
       <r>   26.3303    0.0000 </r>
       <r>   26.3305    0.0000 </r>
       <r>   26.7580    0.0000 </r>
       <r>   26.7585    0.0000 </r>
       <r>   26.9242    0.0000 </r>
       <r>   26.9245    0.0000 </r>
       <r>   26.9572    0.0000 </r>
       <r>   26.9602    0.0000 </r>
       <r>   27.0997    0.0000 </r>
       <r>   27.1041    0.0000 </r>
       <r>   30.4038    0.0000 </r>
       <r>   30.5682    0.0000 </r>
      </set>
      <set comment="kpoint 5">
       <r>   -7.6855    1.0000 </r>
       <r>   -7.6855    1.0000 </r>
       <r>   -1.4392    1.0000 </r>
       <r>   -1.4392    1.0000 </r>
       <r>    2.3575    1.0000 </r>
       <r>    2.3575    1.0000 </r>
       <r>    2.6051    1.0000 </r>
       <r>    2.6112    1.0000 </r>
       <r>    4.4060   -0.0000 </r>
       <r>    4.4060   -0.0000 </r>
       <r>    7.8974    0.0000 </r>
       <r>    7.8974    0.0000 </r>
       <r>    8.1105    0.0000 </r>
       <r>    8.1129    0.0000 </r>
       <r>    9.4132    0.0000 </r>
       <r>    9.4132    0.0000 </r>
       <r>   11.4135    0.0000 </r>
       <r>   11.4135    0.0000 </r>
       <r>   12.2296    0.0000 </r>
       <r>   12.2296    0.0000 </r>
       <r>   12.2665    0.0000 </r>
       <r>   12.3277    0.0000 </r>
       <r>   16.0125    0.0000 </r>
       <r>   16.0125    0.0000 </r>
       <r>   17.6947    0.0000 </r>
       <r>   17.6947    0.0000 </r>
       <r>   17.7906    0.0000 </r>
       <r>   17.8544    0.0000 </r>
       <r>   18.4656    0.0000 </r>
       <r>   18.4656    0.0000 </r>
       <r>   18.7495    0.0000 </r>
       <r>   18.7495    0.0000 </r>
       <r>   18.7568    0.0000 </r>
       <r>   18.8097    0.0000 </r>
       <r>   21.8022    0.0000 </r>
       <r>   21.8022    0.0000 </r>
       <r>   25.2005    0.0000 </r>
       <r>   25.3661    0.0000 </r>
       <r>   25.4242    0.0000 </r>
       <r>   25.4242    0.0000 </r>
       <r>   25.6832    0.0000 </r>
       <r>   25.6832    0.0000 </r>
       <r>   26.3708    0.0000 </r>
       <r>   26.3708    0.0000 </r>
       <r>   26.4209    0.0000 </r>
       <r>   26.4914    0.0000 </r>
       <r>   26.6005    0.0000 </r>
       <r>   26.6008    0.0000 </r>
       <r>   27.4810    0.0000 </r>
       <r>   27.4811    0.0000 </r>
       <r>   27.5938    0.0000 </r>
       <r>   27.6128    0.0000 </r>
       <r>   28.9168    0.0000 </r>
       <r>   28.9216    0.0000 </r>
       <r>   31.1568    0.0000 </r>
       <r>   31.2911    0.0000 </r>
      </set>
      <set comment="kpoint 6">
       <r>   -8.2937    1.0000 </r>
       <r>   -8.2937    1.0000 </r>
       <r>    0.7688    1.0000 </r>
       <r>    0.7688    1.0000 </r>
       <r>    2.8352    1.0000 </r>
       <r>    2.8352    1.0000 </r>
       <r>    3.0744    1.0000 </r>
       <r>    3.0819    1.0000 </r>
       <r>    4.5363   -0.0000 </r>
       <r>    4.5363   -0.0000 </r>
       <r>    7.4345    0.0000 </r>
       <r>    7.4345    0.0000 </r>
       <r>    7.6751    0.0000 </r>
       <r>    7.6751    0.0000 </r>
       <r>    7.7898    0.0000 </r>
       <r>    7.7914    0.0000 </r>
       <r>   11.7500    0.0000 </r>
       <r>   11.7811    0.0000 </r>
       <r>   11.7811    0.0000 </r>
       <r>   11.8164    0.0000 </r>
       <r>   11.8553    0.0000 </r>
       <r>   11.8553    0.0000 </r>
       <r>   13.2579    0.0000 </r>
       <r>   13.2579    0.0000 </r>
       <r>   15.6451    0.0000 </r>
       <r>   15.6522    0.0000 </r>
       <r>   15.6522    0.0000 </r>
       <r>   15.7130    0.0000 </r>
       <r>   18.1533    0.0000 </r>
       <r>   18.1533    0.0000 </r>
       <r>   21.3172    0.0000 </r>
       <r>   21.3172    0.0000 </r>
       <r>   21.4569    0.0000 </r>
       <r>   21.5009    0.0000 </r>
       <r>   21.8643    0.0000 </r>
       <r>   21.8643    0.0000 </r>
       <r>   25.1309    0.0000 </r>
       <r>   25.1932    0.0000 </r>
       <r>   25.3857    0.0000 </r>
       <r>   25.3857    0.0000 </r>
       <r>   26.0143    0.0000 </r>
       <r>   26.0143    0.0000 </r>
       <r>   26.0543    0.0000 </r>
       <r>   26.0543    0.0000 </r>
       <r>   26.2676    0.0000 </r>
       <r>   26.2783    0.0000 </r>
       <r>   27.3621    0.0000 </r>
       <r>   27.3622    0.0000 </r>
       <r>   29.8092    0.0000 </r>
       <r>   29.8163    0.0000 </r>
       <r>   29.8747    0.0000 </r>
       <r>   29.9274    0.0000 </r>
       <r>   30.4856    0.0000 </r>
       <r>   30.5007    0.0000 </r>
       <r>   32.0299    0.0000 </r>
       <r>   32.1850    0.0000 </r>
      </set>
      <set comment="kpoint 7">
       <r>   -8.2119    1.0000 </r>
       <r>   -8.2119    1.0000 </r>
       <r>    0.7175    1.0000 </r>
       <r>    0.7175    1.0000 </r>
       <r>    2.3777    1.0000 </r>
       <r>    2.3777    1.0000 </r>
       <r>    2.5056    1.0000 </r>
       <r>    2.5056    1.0000 </r>
       <r>    5.5160    0.0000 </r>
       <r>    5.5160    0.0000 </r>
       <r>    6.1793    0.0000 </r>
       <r>    6.1793    0.0000 </r>
       <r>    8.3474    0.0000 </r>
       <r>    8.3474    0.0000 </r>
       <r>    8.5405    0.0000 </r>
       <r>    8.5405    0.0000 </r>
       <r>   10.3286    0.0000 </r>
       <r>   10.3286    0.0000 </r>
       <r>   12.7217    0.0000 </r>
       <r>   12.7217    0.0000 </r>
       <r>   13.0765    0.0000 </r>
       <r>   13.0765    0.0000 </r>
       <r>   14.4678    0.0000 </r>
       <r>   14.4678    0.0000 </r>
       <r>   14.5042    0.0000 </r>
       <r>   14.5042    0.0000 </r>
       <r>   15.1384    0.0000 </r>
       <r>   15.1384    0.0000 </r>
       <r>   19.2687    0.0000 </r>
       <r>   19.2687    0.0000 </r>
       <r>   21.0578    0.0000 </r>
       <r>   21.0578    0.0000 </r>
       <r>   21.2529    0.0000 </r>
       <r>   21.2529    0.0000 </r>
       <r>   21.8673    0.0000 </r>
       <r>   21.8673    0.0000 </r>
       <r>   22.6306    0.0000 </r>
       <r>   22.6306    0.0000 </r>
       <r>   25.1447    0.0000 </r>
       <r>   25.1447    0.0000 </r>
       <r>   25.9003    0.0000 </r>
       <r>   25.9004    0.0000 </r>
       <r>   26.0890    0.0000 </r>
       <r>   26.0891    0.0000 </r>
       <r>   27.1748    0.0000 </r>
       <r>   27.1751    0.0000 </r>
       <r>   29.4906    0.0000 </r>
       <r>   29.5121    0.0000 </r>
       <r>   29.5889    0.0000 </r>
       <r>   29.6255    0.0000 </r>
       <r>   30.2251    0.0000 </r>
       <r>   30.2659    0.0000 </r>
       <r>   30.3081    0.0000 </r>
       <r>   30.4370    0.0000 </r>
       <r>   31.0532    0.0000 </r>
       <r>   31.7208    0.0000 </r>
      </set>
      <set comment="kpoint 8">
       <r>   -7.7159    1.0000 </r>
       <r>   -7.7119    1.0000 </r>
       <r>   -0.9412    1.0000 </r>
       <r>   -0.9333    1.0000 </r>
       <r>    1.6869    1.0000 </r>
       <r>    1.7120    1.0000 </r>
       <r>    1.9742    1.0000 </r>
       <r>    1.9746    1.0000 </r>
       <r>    5.6759    0.0000 </r>
       <r>    5.6836    0.0000 </r>
       <r>    6.7477    0.0000 </r>
       <r>    6.7620    0.0000 </r>
       <r>    8.6599    0.0000 </r>
       <r>    8.6883    0.0000 </r>
       <r>    9.1190    0.0000 </r>
       <r>    9.1254    0.0000 </r>
       <r>   11.1615    0.0000 </r>
       <r>   11.1741    0.0000 </r>
       <r>   13.2390    0.0000 </r>
       <r>   13.2763    0.0000 </r>
       <r>   13.2969    0.0000 </r>
       <r>   13.3285    0.0000 </r>
       <r>   15.4783    0.0000 </r>
       <r>   15.5013    0.0000 </r>
       <r>   16.7384    0.0000 </r>
       <r>   16.7704    0.0000 </r>
       <r>   17.6969    0.0000 </r>
       <r>   17.7010    0.0000 </r>
       <r>   17.9898    0.0000 </r>
       <r>   17.9901    0.0000 </r>
       <r>   18.0864    0.0000 </r>
       <r>   18.1257    0.0000 </r>
       <r>   21.4579    0.0000 </r>
       <r>   21.5772    0.0000 </r>
       <r>   21.9873    0.0000 </r>
       <r>   22.0269    0.0000 </r>
       <r>   22.3830    0.0000 </r>
       <r>   22.3852    0.0000 </r>
       <r>   23.0916    0.0000 </r>
       <r>   23.1211    0.0000 </r>
       <r>   25.6238    0.0000 </r>
       <r>   25.6772    0.0000 </r>
       <r>   26.1365    0.0000 </r>
       <r>   26.1482    0.0000 </r>
       <r>   26.7017    0.0000 </r>
       <r>   26.7207    0.0000 </r>
       <r>   28.1610    0.0000 </r>
       <r>   28.2369    0.0000 </r>
       <r>   28.5333    0.0000 </r>
       <r>   28.5540    0.0000 </r>
       <r>   29.4184    0.0000 </r>
       <r>   29.4374    0.0000 </r>
       <r>   29.8288    0.0000 </r>
       <r>   30.0125    0.0000 </r>
       <r>   30.1765    0.0000 </r>
       <r>   30.4574    0.0000 </r>
      </set>
      <set comment="kpoint 9">
       <r>   -7.1721    1.0000 </r>
       <r>   -7.1606    1.0000 </r>
       <r>   -2.2440    1.0000 </r>
       <r>   -2.2185    1.0000 </r>
       <r>    1.0353    1.0000 </r>
       <r>    1.0515    1.0000 </r>
       <r>    1.8826    1.0000 </r>
       <r>    1.8857    1.0000 </r>
       <r>    5.5036    0.0000 </r>
       <r>    5.5047    0.0000 </r>
       <r>    7.5012    0.0000 </r>
       <r>    7.5385    0.0000 </r>
       <r>    8.8739    0.0000 </r>
       <r>    8.8775    0.0000 </r>
       <r>    9.6785    0.0000 </r>
       <r>    9.7513    0.0000 </r>
       <r>   12.1073    0.0000 </r>
       <r>   12.2190    0.0000 </r>
       <r>   13.6149    0.0000 </r>
       <r>   13.6637    0.0000 </r>
       <r>   14.0351    0.0000 </r>
       <r>   14.0675    0.0000 </r>
       <r>   14.8833    0.0000 </r>
       <r>   14.9571    0.0000 </r>
       <r>   15.5295    0.0000 </r>
       <r>   15.5543    0.0000 </r>
       <r>   18.3671    0.0000 </r>
       <r>   18.4904    0.0000 </r>
       <r>   19.7030    0.0000 </r>
       <r>   19.7536    0.0000 </r>
       <r>   20.0453    0.0000 </r>
       <r>   20.0842    0.0000 </r>
       <r>   21.1272    0.0000 </r>
       <r>   21.1303    0.0000 </r>
       <r>   21.9795    0.0000 </r>
       <r>   22.0103    0.0000 </r>
       <r>   22.5106    0.0000 </r>
       <r>   22.5662    0.0000 </r>
       <r>   23.4731    0.0000 </r>
       <r>   23.4855    0.0000 </r>
       <r>   24.1067    0.0000 </r>
       <r>   24.2362    0.0000 </r>
       <r>   25.2765    0.0000 </r>
       <r>   25.3176    0.0000 </r>
       <r>   25.8496    0.0000 </r>
       <r>   25.8551    0.0000 </r>
       <r>   26.4074    0.0000 </r>
       <r>   26.4753    0.0000 </r>
       <r>   26.9520    0.0000 </r>
       <r>   27.0671    0.0000 </r>
       <r>   28.0256    0.0000 </r>
       <r>   28.1309    0.0000 </r>
       <r>   28.4549    0.0000 </r>
       <r>   28.5618    0.0000 </r>
       <r>   29.2640    0.0000 </r>
       <r>   29.7398    0.0000 </r>
      </set>
      <set comment="kpoint 10">
       <r>   -7.3209    1.0000 </r>
       <r>   -7.3104    1.0000 </r>
       <r>   -1.9286    1.0000 </r>
       <r>   -1.9019    1.0000 </r>
       <r>    0.8832    1.0000 </r>
       <r>    0.8922    1.0000 </r>
       <r>    2.2492    1.0000 </r>
       <r>    2.2563    1.0000 </r>
       <r>    5.5679    0.0000 </r>
       <r>    5.5836    0.0000 </r>
       <r>    7.7841    0.0000 </r>
       <r>    7.7975    0.0000 </r>
       <r>    8.4978    0.0000 </r>
       <r>    8.5013    0.0000 </r>
       <r>    9.4951    0.0000 </r>
       <r>    9.5420    0.0000 </r>
       <r>   11.7843    0.0000 </r>
       <r>   11.8103    0.0000 </r>
       <r>   12.5829    0.0000 </r>
       <r>   12.6952    0.0000 </r>
       <r>   13.8632    0.0000 </r>
       <r>   13.9384    0.0000 </r>
       <r>   15.0793    0.0000 </r>
       <r>   15.1738    0.0000 </r>
       <r>   17.1124    0.0000 </r>
       <r>   17.1379    0.0000 </r>
       <r>   18.1529    0.0000 </r>
       <r>   18.2199    0.0000 </r>
       <r>   18.3453    0.0000 </r>
       <r>   18.3554    0.0000 </r>
       <r>   19.7073    0.0000 </r>
       <r>   19.7358    0.0000 </r>
       <r>   21.3789    0.0000 </r>
       <r>   21.4345    0.0000 </r>
       <r>   22.4386    0.0000 </r>
       <r>   22.4515    0.0000 </r>
       <r>   22.8404    0.0000 </r>
       <r>   23.0259    0.0000 </r>
       <r>   23.8570    0.0000 </r>
       <r>   23.9679    0.0000 </r>
       <r>   24.2365    0.0000 </r>
       <r>   24.2703    0.0000 </r>
       <r>   24.4747    0.0000 </r>
       <r>   24.5079    0.0000 </r>
       <r>   26.2782    0.0000 </r>
       <r>   26.3496    0.0000 </r>
       <r>   26.4663    0.0000 </r>
       <r>   26.5236    0.0000 </r>
       <r>   27.0520    0.0000 </r>
       <r>   27.0534    0.0000 </r>
       <r>   28.0458    0.0000 </r>
       <r>   28.0575    0.0000 </r>
       <r>   28.4711    0.0000 </r>
       <r>   28.5154    0.0000 </r>
       <r>   30.4583    0.0000 </r>
       <r>   30.8631    0.0000 </r>
      </set>
      <set comment="kpoint 11">
       <r>   -7.9237    1.0000 </r>
       <r>   -7.9201    1.0000 </r>
       <r>   -0.4369    1.0000 </r>
       <r>   -0.4275    1.0000 </r>
       <r>    1.5449    1.0000 </r>
       <r>    1.5601    1.0000 </r>
       <r>    2.8187    1.0000 </r>
       <r>    2.8295    1.0000 </r>
       <r>    5.4675    0.0000 </r>
       <r>    5.4926    0.0000 </r>
       <r>    7.4710    0.0000 </r>
       <r>    7.6258    0.0000 </r>
       <r>    7.8918    0.0000 </r>
       <r>    7.9283    0.0000 </r>
       <r>    8.4298    0.0000 </r>
       <r>    8.5149    0.0000 </r>
       <r>   10.9208    0.0000 </r>
       <r>   10.9527    0.0000 </r>
       <r>   12.3619    0.0000 </r>
       <r>   12.3644    0.0000 </r>
       <r>   13.3319    0.0000 </r>
       <r>   13.3683    0.0000 </r>
       <r>   14.4531    0.0000 </r>
       <r>   14.4867    0.0000 </r>
       <r>   15.8835    0.0000 </r>
       <r>   15.9592    0.0000 </r>
       <r>   17.6099    0.0000 </r>
       <r>   17.7018    0.0000 </r>
       <r>   18.2598    0.0000 </r>
       <r>   18.3030    0.0000 </r>
       <r>   20.3213    0.0000 </r>
       <r>   20.3475    0.0000 </r>
       <r>   21.4418    0.0000 </r>
       <r>   21.5017    0.0000 </r>
       <r>   21.6593    0.0000 </r>
       <r>   21.6884    0.0000 </r>
       <r>   21.8839    0.0000 </r>
       <r>   21.9653    0.0000 </r>
       <r>   23.1715    0.0000 </r>
       <r>   23.2838    0.0000 </r>
       <r>   26.0380    0.0000 </r>
       <r>   26.1241    0.0000 </r>
       <r>   26.4697    0.0000 </r>
       <r>   26.4960    0.0000 </r>
       <r>   27.4329    0.0000 </r>
       <r>   27.5312    0.0000 </r>
       <r>   28.2722    0.0000 </r>
       <r>   28.2920    0.0000 </r>
       <r>   29.2973    0.0000 </r>
       <r>   29.3904    0.0000 </r>
       <r>   29.7021    0.0000 </r>
       <r>   29.7460    0.0000 </r>
       <r>   30.4504    0.0000 </r>
       <r>   30.6201    0.0000 </r>
       <r>   31.1209    0.0000 </r>
       <r>   31.2324    0.0000 </r>
      </set>
      <set comment="kpoint 12">
       <r>   -7.3762    1.0000 </r>
       <r>   -7.3762    1.0000 </r>
       <r>   -1.4403    1.0000 </r>
       <r>   -1.4403    1.0000 </r>
       <r>    1.3530    1.0000 </r>
       <r>    1.3530    1.0000 </r>
       <r>    1.4010    1.0000 </r>
       <r>    1.4010    1.0000 </r>
       <r>    5.1371    0.0000 </r>
       <r>    5.1371    0.0000 </r>
       <r>    5.8806    0.0000 </r>
       <r>    5.8806    0.0000 </r>
       <r>   10.5777    0.0000 </r>
       <r>   10.5777    0.0000 </r>
       <r>   10.7124    0.0000 </r>
       <r>   10.7124    0.0000 </r>
       <r>   10.8246    0.0000 </r>
       <r>   10.8246    0.0000 </r>
       <r>   13.9282    0.0000 </r>
       <r>   13.9282    0.0000 </r>
       <r>   15.6037    0.0000 </r>
       <r>   15.6037    0.0000 </r>
       <r>   16.8277    0.0000 </r>
       <r>   16.8277    0.0000 </r>
       <r>   16.8967    0.0000 </r>
       <r>   16.8967    0.0000 </r>
       <r>   17.3347    0.0000 </r>
       <r>   17.3347    0.0000 </r>
       <r>   17.5177    0.0000 </r>
       <r>   17.5177    0.0000 </r>
       <r>   17.6866    0.0000 </r>
       <r>   17.6866    0.0000 </r>
       <r>   18.7779    0.0000 </r>
       <r>   18.7779    0.0000 </r>
       <r>   19.4691    0.0000 </r>
       <r>   19.4691    0.0000 </r>
       <r>   24.4039    0.0000 </r>
       <r>   24.4039    0.0000 </r>
       <r>   24.7470    0.0000 </r>
       <r>   24.7470    0.0000 </r>
       <r>   24.8947    0.0000 </r>
       <r>   24.8947    0.0000 </r>
       <r>   25.0243    0.0000 </r>
       <r>   25.0243    0.0000 </r>
       <r>   26.4976    0.0000 </r>
       <r>   26.4976    0.0000 </r>
       <r>   26.5164    0.0000 </r>
       <r>   26.5164    0.0000 </r>
       <r>   27.3596    0.0000 </r>
       <r>   27.3597    0.0000 </r>
       <r>   27.5174    0.0000 </r>
       <r>   27.5175    0.0000 </r>
       <r>   28.2212    0.0000 </r>
       <r>   28.2216    0.0000 </r>
       <r>   31.4924    0.0000 </r>
       <r>   31.6761    0.0000 </r>
      </set>
      <set comment="kpoint 13">
       <r>   -6.9250    1.0000 </r>
       <r>   -6.9118    1.0000 </r>
       <r>   -2.2410    1.0000 </r>
       <r>   -2.2119    1.0000 </r>
       <r>    0.5051    1.0000 </r>
       <r>    0.5199    1.0000 </r>
       <r>    1.2378    1.0000 </r>
       <r>    1.2388    1.0000 </r>
       <r>    5.2970    0.0000 </r>
       <r>    5.3159    0.0000 </r>
       <r>    6.5288    0.0000 </r>
       <r>    6.5513    0.0000 </r>
       <r>   10.1485    0.0000 </r>
       <r>   10.2185    0.0000 </r>
       <r>   10.9262    0.0000 </r>
       <r>   10.9443    0.0000 </r>
       <r>   12.4480    0.0000 </r>
       <r>   12.5751    0.0000 </r>
       <r>   14.3840    0.0000 </r>
       <r>   14.4149    0.0000 </r>
       <r>   15.0338    0.0000 </r>
       <r>   15.1513    0.0000 </r>
       <r>   15.8057    0.0000 </r>
       <r>   15.8062    0.0000 </r>
       <r>   16.3801    0.0000 </r>
       <r>   16.4095    0.0000 </r>
       <r>   18.1042    0.0000 </r>
       <r>   18.1427    0.0000 </r>
       <r>   18.6785    0.0000 </r>
       <r>   18.7474    0.0000 </r>
       <r>   19.5537    0.0000 </r>
       <r>   19.5665    0.0000 </r>
       <r>   19.7760    0.0000 </r>
       <r>   19.8178    0.0000 </r>
       <r>   20.8288    0.0000 </r>
       <r>   20.8626    0.0000 </r>
       <r>   21.3389    0.0000 </r>
       <r>   21.4278    0.0000 </r>
       <r>   23.1797    0.0000 </r>
       <r>   23.2178    0.0000 </r>
       <r>   23.2850    0.0000 </r>
       <r>   23.3851    0.0000 </r>
       <r>   23.9316    0.0000 </r>
       <r>   24.0032    0.0000 </r>
       <r>   25.6387    0.0000 </r>
       <r>   25.7133    0.0000 </r>
       <r>   26.1968    0.0000 </r>
       <r>   26.2089    0.0000 </r>
       <r>   27.4609    0.0000 </r>
       <r>   27.4851    0.0000 </r>
       <r>   27.9376    0.0000 </r>
       <r>   27.9896    0.0000 </r>
       <r>   29.4324    0.0000 </r>
       <r>   29.5283    0.0000 </r>
       <r>   29.7114    0.0000 </r>
       <r>   30.7922    0.0000 </r>
      </set>
      <set comment="kpoint 14">
       <r>   -6.8966    1.0000 </r>
       <r>   -6.8758    1.0000 </r>
       <r>   -2.2790    1.0000 </r>
       <r>   -2.2252    1.0000 </r>
       <r>   -0.0662    1.0000 </r>
       <r>   -0.0649    1.0000 </r>
       <r>    1.6031    1.0000 </r>
       <r>    1.6071    1.0000 </r>
       <r>    5.6208    0.0000 </r>
       <r>    5.6319    0.0000 </r>
       <r>    8.2669    0.0000 </r>
       <r>    8.3989    0.0000 </r>
       <r>    9.8768    0.0000 </r>
       <r>    9.9466    0.0000 </r>
       <r>   10.0475    0.0000 </r>
       <r>   10.2228    0.0000 </r>
       <r>   10.6232    0.0000 </r>
       <r>   10.7044    0.0000 </r>
       <r>   12.3752    0.0000 </r>
       <r>   12.4097    0.0000 </r>
       <r>   15.9629    0.0000 </r>
       <r>   15.9884    0.0000 </r>
       <r>   16.4869    0.0000 </r>
       <r>   16.5190    0.0000 </r>
       <r>   17.5053    0.0000 </r>
       <r>   17.5724    0.0000 </r>
       <r>   18.2260    0.0000 </r>
       <r>   18.2532    0.0000 </r>
       <r>   18.6388    0.0000 </r>
       <r>   18.6592    0.0000 </r>
       <r>   19.2763    0.0000 </r>
       <r>   19.3860    0.0000 </r>
       <r>   20.6450    0.0000 </r>
       <r>   20.8729    0.0000 </r>
       <r>   22.1526    0.0000 </r>
       <r>   22.1908    0.0000 </r>
       <r>   22.4148    0.0000 </r>
       <r>   22.4499    0.0000 </r>
       <r>   23.0944    0.0000 </r>
       <r>   23.1201    0.0000 </r>
       <r>   23.2100    0.0000 </r>
       <r>   23.2148    0.0000 </r>
       <r>   24.0235    0.0000 </r>
       <r>   24.1072    0.0000 </r>
       <r>   25.2108    0.0000 </r>
       <r>   25.2286    0.0000 </r>
       <r>   25.8327    0.0000 </r>
       <r>   25.8922    0.0000 </r>
       <r>   26.6156    0.0000 </r>
       <r>   26.6548    0.0000 </r>
       <r>   27.7056    0.0000 </r>
       <r>   27.7107    0.0000 </r>
       <r>   27.8175    0.0000 </r>
       <r>   27.8400    0.0000 </r>
       <r>   28.3715    0.0000 </r>
       <r>   28.4065    0.0000 </r>
      </set>
      <set comment="kpoint 15">
       <r>   -7.3209    1.0000 </r>
       <r>   -7.3104    1.0000 </r>
       <r>   -1.9286    1.0000 </r>
       <r>   -1.9019    1.0000 </r>
       <r>    0.8832    1.0000 </r>
       <r>    0.8922    1.0000 </r>
       <r>    2.2492    1.0000 </r>
       <r>    2.2563    1.0000 </r>
       <r>    5.5679    0.0000 </r>
       <r>    5.5836    0.0000 </r>
       <r>    7.7841    0.0000 </r>
       <r>    7.7975    0.0000 </r>
       <r>    8.4978    0.0000 </r>
       <r>    8.5013    0.0000 </r>
       <r>    9.4951    0.0000 </r>
       <r>    9.5420    0.0000 </r>
       <r>   11.7843    0.0000 </r>
       <r>   11.8103    0.0000 </r>
       <r>   12.5829    0.0000 </r>
       <r>   12.6952    0.0000 </r>
       <r>   13.8632    0.0000 </r>
       <r>   13.9384    0.0000 </r>
       <r>   15.0793    0.0000 </r>
       <r>   15.1738    0.0000 </r>
       <r>   17.1124    0.0000 </r>
       <r>   17.1379    0.0000 </r>
       <r>   18.1529    0.0000 </r>
       <r>   18.2199    0.0000 </r>
       <r>   18.3453    0.0000 </r>
       <r>   18.3554    0.0000 </r>
       <r>   19.7073    0.0000 </r>
       <r>   19.7358    0.0000 </r>
       <r>   21.3789    0.0000 </r>
       <r>   21.4345    0.0000 </r>
       <r>   22.4386    0.0000 </r>
       <r>   22.4515    0.0000 </r>
       <r>   22.8404    0.0000 </r>
       <r>   23.0259    0.0000 </r>
       <r>   23.8570    0.0000 </r>
       <r>   23.9679    0.0000 </r>
       <r>   24.2365    0.0000 </r>
       <r>   24.2703    0.0000 </r>
       <r>   24.4747    0.0000 </r>
       <r>   24.5079    0.0000 </r>
       <r>   26.2781    0.0000 </r>
       <r>   26.3498    0.0000 </r>
       <r>   26.4665    0.0000 </r>
       <r>   26.5238    0.0000 </r>
       <r>   27.0518    0.0000 </r>
       <r>   27.0542    0.0000 </r>
       <r>   28.0413    0.0000 </r>
       <r>   28.0566    0.0000 </r>
       <r>   28.4745    0.0000 </r>
       <r>   28.5126    0.0000 </r>
       <r>   30.4129    0.0000 </r>
       <r>   30.7504    0.0000 </r>
      </set>
      <set comment="kpoint 16">
       <r>   -6.7620    1.0000 </r>
       <r>   -6.7620    1.0000 </r>
       <r>   -2.5138    1.0000 </r>
       <r>   -2.5138    1.0000 </r>
       <r>    0.9665    1.0000 </r>
       <r>    0.9665    1.0000 </r>
       <r>    0.9745    1.0000 </r>
       <r>    0.9745    1.0000 </r>
       <r>    4.8396    0.0000 </r>
       <r>    4.8396    0.0000 </r>
       <r>    5.3631    0.0000 </r>
       <r>    5.3631    0.0000 </r>
       <r>   12.3448    0.0000 </r>
       <r>   12.3448    0.0000 </r>
       <r>   12.4405    0.0000 </r>
       <r>   12.4405    0.0000 </r>
       <r>   12.6392    0.0000 </r>
       <r>   12.6392    0.0000 </r>
       <r>   14.7493    0.0000 </r>
       <r>   14.7493    0.0000 </r>
       <r>   15.2509    0.0000 </r>
       <r>   15.2509    0.0000 </r>
       <r>   15.2863    0.0000 </r>
       <r>   15.2863    0.0000 </r>
       <r>   15.4512    0.0000 </r>
       <r>   15.4512    0.0000 </r>
       <r>   17.2041    0.0000 </r>
       <r>   17.2041    0.0000 </r>
       <r>   19.9026    0.0000 </r>
       <r>   19.9026    0.0000 </r>
       <r>   20.3492    0.0000 </r>
       <r>   20.3492    0.0000 </r>
       <r>   20.4075    0.0000 </r>
       <r>   20.4075    0.0000 </r>
       <r>   20.6874    0.0000 </r>
       <r>   20.6874    0.0000 </r>
       <r>   20.8764    0.0000 </r>
       <r>   20.8764    0.0000 </r>
       <r>   20.9263    0.0000 </r>
       <r>   20.9263    0.0000 </r>
       <r>   21.4229    0.0000 </r>
       <r>   21.4229    0.0000 </r>
       <r>   22.7031    0.0000 </r>
       <r>   22.7031    0.0000 </r>
       <r>   26.4030    0.0000 </r>
       <r>   26.4030    0.0000 </r>
       <r>   26.8287    0.0000 </r>
       <r>   26.8287    0.0000 </r>
       <r>   27.6022    0.0000 </r>
       <r>   27.6025    0.0000 </r>
       <r>   27.7005    0.0000 </r>
       <r>   27.7011    0.0000 </r>
       <r>   31.7320    0.0000 </r>
       <r>   31.7585    0.0000 </r>
       <r>   31.8010    0.0000 </r>
       <r>   31.8926    0.0000 </r>
      </set>
      <set comment="kpoint 17">
       <r>   -6.9250    1.0000 </r>
       <r>   -6.9118    1.0000 </r>
       <r>   -2.2410    1.0000 </r>
       <r>   -2.2119    1.0000 </r>
       <r>    0.5051    1.0000 </r>
       <r>    0.5199    1.0000 </r>
       <r>    1.2378    1.0000 </r>
       <r>    1.2388    1.0000 </r>
       <r>    5.2970    0.0000 </r>
       <r>    5.3159    0.0000 </r>
       <r>    6.5288    0.0000 </r>
       <r>    6.5513    0.0000 </r>
       <r>   10.1485    0.0000 </r>
       <r>   10.2185    0.0000 </r>
       <r>   10.9262    0.0000 </r>
       <r>   10.9443    0.0000 </r>
       <r>   12.4480    0.0000 </r>
       <r>   12.5751    0.0000 </r>
       <r>   14.3840    0.0000 </r>
       <r>   14.4149    0.0000 </r>
       <r>   15.0338    0.0000 </r>
       <r>   15.1513    0.0000 </r>
       <r>   15.8057    0.0000 </r>
       <r>   15.8062    0.0000 </r>
       <r>   16.3801    0.0000 </r>
       <r>   16.4095    0.0000 </r>
       <r>   18.1042    0.0000 </r>
       <r>   18.1427    0.0000 </r>
       <r>   18.6785    0.0000 </r>
       <r>   18.7474    0.0000 </r>
       <r>   19.5537    0.0000 </r>
       <r>   19.5665    0.0000 </r>
       <r>   19.7760    0.0000 </r>
       <r>   19.8178    0.0000 </r>
       <r>   20.8288    0.0000 </r>
       <r>   20.8626    0.0000 </r>
       <r>   21.3389    0.0000 </r>
       <r>   21.4278    0.0000 </r>
       <r>   23.1797    0.0000 </r>
       <r>   23.2178    0.0000 </r>
       <r>   23.2850    0.0000 </r>
       <r>   23.3851    0.0000 </r>
       <r>   23.9316    0.0000 </r>
       <r>   24.0032    0.0000 </r>
       <r>   25.6386    0.0000 </r>
       <r>   25.7133    0.0000 </r>
       <r>   26.1969    0.0000 </r>
       <r>   26.2089    0.0000 </r>
       <r>   27.4589    0.0000 </r>
       <r>   27.4861    0.0000 </r>
       <r>   27.9371    0.0000 </r>
       <r>   27.9858    0.0000 </r>
       <r>   29.4334    0.0000 </r>
       <r>   29.4803    0.0000 </r>
       <r>   29.7229    0.0000 </r>
       <r>   29.9536    0.0000 </r>
      </set>
      <set comment="kpoint 18">
       <r>   -7.1721    1.0000 </r>
       <r>   -7.1606    1.0000 </r>
       <r>   -2.2440    1.0000 </r>
       <r>   -2.2185    1.0000 </r>
       <r>    1.0353    1.0000 </r>
       <r>    1.0515    1.0000 </r>
       <r>    1.8826    1.0000 </r>
       <r>    1.8857    1.0000 </r>
       <r>    5.5036    0.0000 </r>
       <r>    5.5047    0.0000 </r>
       <r>    7.5012    0.0000 </r>
       <r>    7.5385    0.0000 </r>
       <r>    8.8739    0.0000 </r>
       <r>    8.8775    0.0000 </r>
       <r>    9.6785    0.0000 </r>
       <r>    9.7513    0.0000 </r>
       <r>   12.1073    0.0000 </r>
       <r>   12.2190    0.0000 </r>
       <r>   13.6149    0.0000 </r>
       <r>   13.6637    0.0000 </r>
       <r>   14.0351    0.0000 </r>
       <r>   14.0675    0.0000 </r>
       <r>   14.8833    0.0000 </r>
       <r>   14.9571    0.0000 </r>
       <r>   15.5295    0.0000 </r>
       <r>   15.5543    0.0000 </r>
       <r>   18.3671    0.0000 </r>
       <r>   18.4904    0.0000 </r>
       <r>   19.7030    0.0000 </r>
       <r>   19.7536    0.0000 </r>
       <r>   20.0453    0.0000 </r>
       <r>   20.0842    0.0000 </r>
       <r>   21.1272    0.0000 </r>
       <r>   21.1303    0.0000 </r>
       <r>   21.9795    0.0000 </r>
       <r>   22.0103    0.0000 </r>
       <r>   22.5106    0.0000 </r>
       <r>   22.5662    0.0000 </r>
       <r>   23.4731    0.0000 </r>
       <r>   23.4855    0.0000 </r>
       <r>   24.1067    0.0000 </r>
       <r>   24.2362    0.0000 </r>
       <r>   25.2761    0.0000 </r>
       <r>   25.3174    0.0000 </r>
       <r>   25.8491    0.0000 </r>
       <r>   25.8547    0.0000 </r>
       <r>   26.4065    0.0000 </r>
       <r>   26.4745    0.0000 </r>
       <r>   26.9537    0.0000 </r>
       <r>   27.0682    0.0000 </r>
       <r>   28.0205    0.0000 </r>
       <r>   28.0951    0.0000 </r>
       <r>   28.4557    0.0000 </r>
       <r>   28.5348    0.0000 </r>
       <r>   29.2267    0.0000 </r>
       <r>   29.4581    0.0000 </r>
      </set>
      <set comment="kpoint 19">
       <r>   -7.7159    1.0000 </r>
       <r>   -7.7119    1.0000 </r>
       <r>   -0.9412    1.0000 </r>
       <r>   -0.9333    1.0000 </r>
       <r>    1.6869    1.0000 </r>
       <r>    1.7120    1.0000 </r>
       <r>    1.9742    1.0000 </r>
       <r>    1.9746    1.0000 </r>
       <r>    5.6759    0.0000 </r>
       <r>    5.6836    0.0000 </r>
       <r>    6.7477    0.0000 </r>
       <r>    6.7620    0.0000 </r>
       <r>    8.6599    0.0000 </r>
       <r>    8.6883    0.0000 </r>
       <r>    9.1190    0.0000 </r>
       <r>    9.1254    0.0000 </r>
       <r>   11.1615    0.0000 </r>
       <r>   11.1741    0.0000 </r>
       <r>   13.2390    0.0000 </r>
       <r>   13.2763    0.0000 </r>
       <r>   13.2969    0.0000 </r>
       <r>   13.3285    0.0000 </r>
       <r>   15.4783    0.0000 </r>
       <r>   15.5013    0.0000 </r>
       <r>   16.7384    0.0000 </r>
       <r>   16.7704    0.0000 </r>
       <r>   17.6969    0.0000 </r>
       <r>   17.7010    0.0000 </r>
       <r>   17.9898    0.0000 </r>
       <r>   17.9901    0.0000 </r>
       <r>   18.0864    0.0000 </r>
       <r>   18.1257    0.0000 </r>
       <r>   21.4579    0.0000 </r>
       <r>   21.5772    0.0000 </r>
       <r>   21.9873    0.0000 </r>
       <r>   22.0269    0.0000 </r>
       <r>   22.3830    0.0000 </r>
       <r>   22.3852    0.0000 </r>
       <r>   23.0916    0.0000 </r>
       <r>   23.1211    0.0000 </r>
       <r>   25.6237    0.0000 </r>
       <r>   25.6772    0.0000 </r>
       <r>   26.1365    0.0000 </r>
       <r>   26.1481    0.0000 </r>
       <r>   26.7017    0.0000 </r>
       <r>   26.7207    0.0000 </r>
       <r>   28.1595    0.0000 </r>
       <r>   28.2377    0.0000 </r>
       <r>   28.5307    0.0000 </r>
       <r>   28.5439    0.0000 </r>
       <r>   29.4154    0.0000 </r>
       <r>   29.4622    0.0000 </r>
       <r>   29.8326    0.0000 </r>
       <r>   29.9821    0.0000 </r>
       <r>   30.2158    0.0000 </r>
       <r>   30.2707    0.0000 </r>
      </set>
      <set comment="kpoint 20">
       <r>   -7.2158    1.0000 </r>
       <r>   -7.2035    1.0000 </r>
       <r>   -1.8023    1.0000 </r>
       <r>   -1.7705    1.0000 </r>
       <r>    0.5783    1.0000 </r>
       <r>    0.5818    1.0000 </r>
       <r>    1.5428    1.0000 </r>
       <r>    1.5684    1.0000 </r>
       <r>    6.5579    0.0000 </r>
       <r>    6.6527    0.0000 </r>
       <r>    6.7249    0.0000 </r>
       <r>    6.8275    0.0000 </r>
       <r>    8.1449    0.0000 </r>
       <r>    8.2725    0.0000 </r>
       <r>   10.4885    0.0000 </r>
       <r>   10.6389    0.0000 </r>
       <r>   11.5438    0.0000 </r>
       <r>   11.5814    0.0000 </r>
       <r>   13.6959    0.0000 </r>
       <r>   13.8368    0.0000 </r>
       <r>   15.0848    0.0000 </r>
       <r>   15.1879    0.0000 </r>
       <r>   15.3937    0.0000 </r>
       <r>   15.4071    0.0000 </r>
       <r>   16.0482    0.0000 </r>
       <r>   16.1247    0.0000 </r>
       <r>   17.7963    0.0000 </r>
       <r>   17.8954    0.0000 </r>
       <r>   18.6487    0.0000 </r>
       <r>   18.7664    0.0000 </r>
       <r>   19.6785    0.0000 </r>
       <r>   19.6950    0.0000 </r>
       <r>   20.5953    0.0000 </r>
       <r>   20.6559    0.0000 </r>
       <r>   21.9832    0.0000 </r>
       <r>   22.0352    0.0000 </r>
       <r>   22.3231    0.0000 </r>
       <r>   22.4433    0.0000 </r>
       <r>   23.1355    0.0000 </r>
       <r>   23.1862    0.0000 </r>
       <r>   23.5208    0.0000 </r>
       <r>   23.5257    0.0000 </r>
       <r>   25.0354    0.0000 </r>
       <r>   25.1096    0.0000 </r>
       <r>   25.6545    0.0000 </r>
       <r>   25.6910    0.0000 </r>
       <r>   26.7988    0.0000 </r>
       <r>   26.8621    0.0000 </r>
       <r>   27.2639    0.0000 </r>
       <r>   27.2956    0.0000 </r>
       <r>   28.2787    0.0000 </r>
       <r>   28.3171    0.0000 </r>
       <r>   29.2879    0.0000 </r>
       <r>   29.3453    0.0000 </r>
       <r>   29.7805    0.0000 </r>
       <r>   29.9712    0.0000 </r>
      </set>
      <set comment="kpoint 21">
       <r>   -6.8962    1.0000 </r>
       <r>   -6.8756    1.0000 </r>
       <r>   -2.3053    1.0000 </r>
       <r>   -2.2558    1.0000 </r>
       <r>    0.1892    1.0000 </r>
       <r>    0.1943    1.0000 </r>
       <r>    1.1962    1.0000 </r>
       <r>    1.2239    1.0000 </r>
       <r>    6.6312    0.0000 </r>
       <r>    6.6762    0.0000 </r>
       <r>    7.3749    0.0000 </r>
       <r>    7.4647    0.0000 </r>
       <r>    8.7778    0.0000 </r>
       <r>    8.8829    0.0000 </r>
       <r>   10.3573    0.0000 </r>
       <r>   10.5166    0.0000 </r>
       <r>   11.0980    0.0000 </r>
       <r>   11.2634    0.0000 </r>
       <r>   13.9790    0.0000 </r>
       <r>   13.9947    0.0000 </r>
       <r>   14.9080    0.0000 </r>
       <r>   14.9468    0.0000 </r>
       <r>   15.3852    0.0000 </r>
       <r>   15.4582    0.0000 </r>
       <r>   17.8588    0.0000 </r>
       <r>   17.9180    0.0000 </r>
       <r>   18.2209    0.0000 </r>
       <r>   18.3046    0.0000 </r>
       <r>   18.9727    0.0000 </r>
       <r>   19.0178    0.0000 </r>
       <r>   19.8648    0.0000 </r>
       <r>   19.9155    0.0000 </r>
       <r>   20.2555    0.0000 </r>
       <r>   20.4023    0.0000 </r>
       <r>   21.9172    0.0000 </r>
       <r>   22.0697    0.0000 </r>
       <r>   22.5161    0.0000 </r>
       <r>   22.5647    0.0000 </r>
       <r>   22.8909    0.0000 </r>
       <r>   22.9497    0.0000 </r>
       <r>   23.2447    0.0000 </r>
       <r>   23.2854    0.0000 </r>
       <r>   24.6411    0.0000 </r>
       <r>   24.6588    0.0000 </r>
       <r>   24.8904    0.0000 </r>
       <r>   24.9499    0.0000 </r>
       <r>   25.4805    0.0000 </r>
       <r>   25.5116    0.0000 </r>
       <r>   26.9060    0.0000 </r>
       <r>   26.9787    0.0000 </r>
       <r>   27.9936    0.0000 </r>
       <r>   28.0783    0.0000 </r>
       <r>   28.7450    0.0000 </r>
       <r>   28.9084    0.0000 </r>
       <r>   29.0085    0.0000 </r>
       <r>   29.2332    0.0000 </r>
      </set>
      <set comment="kpoint 22">
       <r>   -6.7491    1.0000 </r>
       <r>   -6.7279    1.0000 </r>
       <r>   -2.4231    1.0000 </r>
       <r>   -2.3770    1.0000 </r>
       <r>    0.4296    1.0000 </r>
       <r>    0.4929    1.0000 </r>
       <r>    0.5220    1.0000 </r>
       <r>    0.6080    1.0000 </r>
       <r>    6.3318    0.0000 </r>
       <r>    6.4146    0.0000 </r>
       <r>    6.6834    0.0000 </r>
       <r>    6.7769    0.0000 </r>
       <r>    9.6206    0.0000 </r>
       <r>    9.7711    0.0000 </r>
       <r>   10.2292    0.0000 </r>
       <r>   10.2683    0.0000 </r>
       <r>   12.8792    0.0000 </r>
       <r>   13.0366    0.0000 </r>
       <r>   14.7169    0.0000 </r>
       <r>   14.8795    0.0000 </r>
       <r>   14.8905    0.0000 </r>
       <r>   14.9530    0.0000 </r>
       <r>   15.1955    0.0000 </r>
       <r>   15.2715    0.0000 </r>
       <r>   18.0018    0.0000 </r>
       <r>   18.0712    0.0000 </r>
       <r>   18.8190    0.0000 </r>
       <r>   18.9049    0.0000 </r>
       <r>   18.9346    0.0000 </r>
       <r>   19.0054    0.0000 </r>
       <r>   19.1741    0.0000 </r>
       <r>   19.2034    0.0000 </r>
       <r>   19.3845    0.0000 </r>
       <r>   19.5020    0.0000 </r>
       <r>   20.1607    0.0000 </r>
       <r>   20.1975    0.0000 </r>
       <r>   22.6291    0.0000 </r>
       <r>   22.6783    0.0000 </r>
       <r>   22.9455    0.0000 </r>
       <r>   23.0222    0.0000 </r>
       <r>   23.8260    0.0000 </r>
       <r>   23.8279    0.0000 </r>
       <r>   23.8786    0.0000 </r>
       <r>   23.8971    0.0000 </r>
       <r>   24.4314    0.0000 </r>
       <r>   24.5990    0.0000 </r>
       <r>   24.6676    0.0000 </r>
       <r>   24.6897    0.0000 </r>
       <r>   26.7927    0.0000 </r>
       <r>   26.8568    0.0000 </r>
       <r>   28.2131    0.0000 </r>
       <r>   28.2344    0.0000 </r>
       <r>   28.8221    0.0000 </r>
       <r>   28.9058    0.0000 </r>
       <r>   29.6698    0.0000 </r>
       <r>   29.8819    0.0000 </r>
      </set>
     </set>
    </set>
   </array>
  </eigenvalues>
  <separator name="orbital magnetization" >
   <v name="MAGDIPOLOUT">      0.00000000      0.00000000      0.00000000</v>
  </separator>
  <dos>
   <i name="efermi">      3.38571624 </i>
   <total>
    <array>
     <dimension dim="1">gridpoints</dimension>
     <dimension dim="2">spin</dimension>
     <field>energy</field>
     <field>total</field>
     <field>integrated</field>
     <set>
      <set comment="spin 1">
       <r>   -10.6489     0.0000     0.0000 </r>
       <r>   -10.4939     0.0000     0.0000 </r>
       <r>   -10.3389     0.0000     0.0000 </r>
       <r>   -10.1839     0.0000     0.0000 </r>
       <r>   -10.0289     0.0000     0.0000 </r>
       <r>    -9.8738     0.0000     0.0000 </r>
       <r>    -9.7188     0.0000     0.0000 </r>
       <r>    -9.5638     0.0000     0.0000 </r>
       <r>    -9.4088     0.0000     0.0000 </r>
       <r>    -9.2538     0.0000     0.0000 </r>
       <r>    -9.0988     0.0000     0.0000 </r>
       <r>    -8.9438    -0.0000    -0.0000 </r>
       <r>    -8.7888    -0.0000    -0.0000 </r>
       <r>    -8.6337    -0.0005    -0.0001 </r>
       <r>    -8.4787     0.0623     0.0096 </r>
       <r>    -8.3237     0.0351     0.0150 </r>
       <r>    -8.1687     0.8013     0.1392 </r>
       <r>    -8.0137    -0.0116     0.1374 </r>
       <r>    -7.8587     0.7511     0.2539 </r>
       <r>    -7.7037     1.0360     0.4145 </r>
       <r>    -7.5486     0.8507     0.5463 </r>
       <r>    -7.3936     0.0442     0.5532 </r>
       <r>    -7.2386     2.0987     0.8785 </r>
       <r>    -7.0836     2.7864     1.3104 </r>
       <r>    -6.9286     0.4832     1.3853 </r>
       <r>    -6.7736     3.1777     1.8779 </r>
       <r>    -6.6186     0.7894     2.0003 </r>
       <r>    -6.4636    -0.0018     2.0000 </r>
       <r>    -6.3085     0.0000     2.0000 </r>
       <r>    -6.1535     0.0000     2.0000 </r>
       <r>    -5.9985     0.0000     2.0000 </r>
       <r>    -5.8435     0.0000     2.0000 </r>
       <r>    -5.6885     0.0000     2.0000 </r>
       <r>    -5.5335     0.0000     2.0000 </r>
       <r>    -5.3785     0.0000     2.0000 </r>
       <r>    -5.2234     0.0000     2.0000 </r>
       <r>    -5.0684     0.0000     2.0000 </r>
       <r>    -4.9134     0.0000     2.0000 </r>
       <r>    -4.7584     0.0000     2.0000 </r>
       <r>    -4.6034     0.0000     2.0000 </r>
       <r>    -4.4484     0.0000     2.0000 </r>
       <r>    -4.2934     0.0000     2.0000 </r>
       <r>    -4.1384     0.0000     2.0000 </r>
       <r>    -3.9833     0.0000     2.0000 </r>
       <r>    -3.8283     0.0000     2.0000 </r>
       <r>    -3.6733     0.0000     2.0000 </r>
       <r>    -3.5183     0.0000     2.0000 </r>
       <r>    -3.3633     0.0000     2.0000 </r>
       <r>    -3.2083     0.0000     2.0000 </r>
       <r>    -3.0533    -0.0000     2.0000 </r>
       <r>    -2.8983    -0.0000     2.0000 </r>
       <r>    -2.7432    -0.0000     2.0000 </r>
       <r>    -2.5882    -0.0051     1.9992 </r>
       <r>    -2.4332     0.4131     2.0632 </r>
       <r>    -2.2782     1.6591     2.3204 </r>
       <r>    -2.1232     4.1098     2.9575 </r>
       <r>    -1.9682    -0.0401     2.9513 </r>
       <r>    -1.8132     1.6907     3.2133 </r>
       <r>    -1.6581     1.1947     3.3985 </r>
       <r>    -1.5031    -0.0319     3.3936 </r>
       <r>    -1.3481     0.8767     3.5295 </r>
       <r>    -1.1931    -0.0111     3.5278 </r>
       <r>    -1.0381    -0.0111     3.5261 </r>
       <r>    -0.8831     1.4880     3.7567 </r>
       <r>    -0.7281    -0.0433     3.7500 </r>
       <r>    -0.5731    -0.0002     3.7500 </r>
       <r>    -0.4180     0.5206     3.8307 </r>
       <r>    -0.2630     0.1964     3.8611 </r>
       <r>    -0.1080    -0.0011     3.8609 </r>
       <r>     0.0470     0.7200     3.9725 </r>
       <r>     0.2020     0.9572     4.1209 </r>
       <r>     0.3570     0.4634     4.1928 </r>
       <r>     0.5120     1.4385     4.4157 </r>
       <r>     0.6671     2.8973     4.8649 </r>
       <r>     0.8221     0.7807     4.9859 </r>
       <r>     0.9771     1.6597     5.2431 </r>
       <r>     1.1321     1.5784     5.4878 </r>
       <r>     1.2871     2.9399     5.9435 </r>
       <r>     1.4421     0.6574     6.0454 </r>
       <r>     1.5971     2.3651     6.4121 </r>
       <r>     1.7521     1.9584     6.7157 </r>
       <r>     1.9072     1.1487     6.8937 </r>
       <r>     2.0622     1.7224     7.1607 </r>
       <r>     2.2172     0.2805     7.2042 </r>
       <r>     2.3722     1.8696     7.4940 </r>
       <r>     2.5272     0.8641     7.6280 </r>
       <r>     2.6822     0.5617     7.7150 </r>
       <r>     2.8372     0.7509     7.8314 </r>
       <r>     2.9922     0.4219     7.8968 </r>
       <r>     3.1473     0.6224     7.9933 </r>
       <r>     3.3023    -0.0190     7.9904 </r>
       <r>     3.4573     0.1255     8.0098 </r>
       <r>     3.6123    -0.0037     8.0093 </r>
       <r>     3.7673    -0.0000     8.0093 </r>
       <r>     3.9223    -0.0000     8.0093 </r>
       <r>     4.0773    -0.0000     8.0093 </r>
       <r>     4.2324     0.0415     8.0157 </r>
       <r>     4.3874     0.2967     8.0617 </r>
       <r>     4.5424     0.6662     8.1650 </r>
       <r>     4.6974     0.1902     8.1944 </r>
       <r>     4.8524     0.1271     8.2141 </r>
       <r>     5.0074     0.0519     8.2222 </r>
       <r>     5.1624     0.3128     8.2707 </r>
       <r>     5.3174     1.0061     8.4266 </r>
       <r>     5.4725     1.0108     8.5833 </r>
       <r>     5.6275     3.9502     9.1956 </r>
       <r>     5.7825     1.7908     9.4732 </r>
       <r>     5.9375     0.3640     9.5297 </r>
       <r>     6.0925    -0.0183     9.5268 </r>
       <r>     6.2475     0.3694     9.5841 </r>
       <r>     6.4025     0.4720     9.6573 </r>
       <r>     6.5576     1.6488     9.9128 </r>
       <r>     6.7126     3.4480    10.4473 </r>
       <r>     6.8676     3.0317    10.9173 </r>
       <r>     7.0226     0.0559    10.9260 </r>
       <r>     7.1776    -0.0002    10.9259 </r>
       <r>     7.3326     0.0114    10.9277 </r>
       <r>     7.4876     2.3826    11.2970 </r>
       <r>     7.6426     1.7366    11.5662 </r>
       <r>     7.7977     1.6882    11.8279 </r>
       <r>     7.9527     2.1697    12.1642 </r>
       <r>     8.1077     0.4881    12.2399 </r>
       <r>     8.2627     1.3521    12.4495 </r>
       <r>     8.4177     1.4123    12.6684 </r>
       <r>     8.5727     2.5160    13.0584 </r>
       <r>     8.7277     1.4112    13.2772 </r>
       <r>     8.8827     1.9657    13.5819 </r>
       <r>     9.0378     0.8779    13.7180 </r>
       <r>     9.1928     1.5055    13.9514 </r>
       <r>     9.3478    -0.0612    13.9419 </r>
       <r>     9.5028     0.9614    14.0909 </r>
       <r>     9.6578     1.4375    14.3137 </r>
       <r>     9.8128     1.6918    14.5760 </r>
       <r>     9.9678     0.6384    14.6750 </r>
       <r>    10.1229     0.6727    14.7792 </r>
       <r>    10.2779     2.3962    15.1507 </r>
       <r>    10.4329     1.1619    15.3308 </r>
       <r>    10.5879     1.7105    15.5959 </r>
       <r>    10.7429     1.8526    15.8831 </r>
       <r>    10.8979     0.5668    15.9710 </r>
       <r>    11.0529     2.0330    16.2861 </r>
       <r>    11.2079     2.1124    16.6136 </r>
       <r>    11.3630     0.7538    16.7304 </r>
       <r>    11.5180     0.5491    16.8156 </r>
       <r>    11.6730     1.3678    17.0276 </r>
       <r>    11.8280     2.2291    17.3731 </r>
       <r>    11.9830     0.6388    17.4722 </r>
       <r>    12.1380     0.6423    17.5717 </r>
       <r>    12.2930     1.6169    17.8224 </r>
       <r>    12.4481     2.4713    18.2054 </r>
       <r>    12.6031     1.6309    18.4582 </r>
       <r>    12.7581     1.5003    18.6908 </r>
       <r>    12.9131     0.4241    18.7565 </r>
       <r>    13.0681     0.4806    18.8310 </r>
       <r>    13.2231     0.4018    18.8933 </r>
       <r>    13.3781     3.8377    19.4882 </r>
       <r>    13.5331     0.0591    19.4974 </r>
       <r>    13.6882     1.8139    19.7786 </r>
       <r>    13.8432     1.0929    19.9480 </r>
       <r>    13.9982     3.1930    20.4429 </r>
       <r>    14.1532     2.1157    20.7709 </r>
       <r>    14.3082    -0.0383    20.7650 </r>
       <r>    14.4632     1.9345    21.0648 </r>
       <r>    14.6182     0.9537    21.2127 </r>
       <r>    14.7732     0.5205    21.2933 </r>
       <r>    14.9283     2.3437    21.6566 </r>
       <r>    15.0833     3.2832    22.1656 </r>
       <r>    15.2383     4.0330    22.7907 </r>
       <r>    15.3933     1.7123    23.0562 </r>
       <r>    15.5483     4.4067    23.7393 </r>
       <r>    15.7033     1.7183    24.0056 </r>
       <r>    15.8583     1.6592    24.2628 </r>
       <r>    16.0134     1.5977    24.5105 </r>
       <r>    16.1684     1.6726    24.7698 </r>
       <r>    16.3234     0.0147    24.7721 </r>
       <r>    16.4784     1.6312    25.0249 </r>
       <r>    16.6334     0.5527    25.1106 </r>
       <r>    16.7884     1.3033    25.3126 </r>
       <r>    16.9434     0.8573    25.4455 </r>
       <r>    17.0984     0.1975    25.4761 </r>
       <r>    17.2535     1.4067    25.6942 </r>
       <r>    17.4085     0.3653    25.7508 </r>
       <r>    17.5635     0.8481    25.8823 </r>
       <r>    17.7185     2.7273    26.3051 </r>
       <r>    17.8735     2.2882    26.6598 </r>
       <r>    18.0285     3.2122    27.1577 </r>
       <r>    18.1835     4.5091    27.8567 </r>
       <r>    18.3385     4.0946    28.4914 </r>
       <r>    18.4936     2.4961    28.8783 </r>
       <r>    18.6486     1.1234    29.0524 </r>
       <r>    18.8036     4.0673    29.6829 </r>
       <r>    18.9586     1.2741    29.8804 </r>
[...]
       <r>    22.2139     0.0000     0.0000 </r>
       <r>    22.3689     0.0000     0.0000 </r>
       <r>    22.5239     0.0000     0.0000 </r>
       <r>    22.6789     0.0000     0.0000 </r>
       <r>    22.8339     0.0000     0.0000 </r>
       <r>    22.9889     0.0000     0.0000 </r>
       <r>    23.1440     0.0000     0.0000 </r>
       <r>    23.2990     0.0000     0.0000 </r>
       <r>    23.4540     0.0000     0.0000 </r>
       <r>    23.6090     0.0000     0.0000 </r>
       <r>    23.7640     0.0000     0.0000 </r>
       <r>    23.9190     0.0000     0.0000 </r>
       <r>    24.0740     0.0000     0.0000 </r>
       <r>    24.2290     0.0000     0.0000 </r>
       <r>    24.3841     0.0000     0.0000 </r>
       <r>    24.5391     0.0000     0.0000 </r>
       <r>    24.6941     0.0000     0.0000 </r>
       <r>    24.8491     0.0000     0.0000 </r>
       <r>    25.0041     0.0000     0.0000 </r>
       <r>    25.1591     0.0000     0.0000 </r>
       <r>    25.3141     0.0000     0.0000 </r>
       <r>    25.4692     0.0000     0.0000 </r>
       <r>    25.6242     0.0000     0.0000 </r>
       <r>    25.7792     0.0000     0.0000 </r>
       <r>    25.9342     0.0000     0.0000 </r>
       <r>    26.0892     0.0000     0.0000 </r>
       <r>    26.2442     0.0000     0.0000 </r>
       <r>    26.3992     0.0000     0.0000 </r>
       <r>    26.5542     0.0000     0.0000 </r>
       <r>    26.7093     0.0000     0.0000 </r>
       <r>    26.8643     0.0000     0.0000 </r>
       <r>    27.0193     0.0000     0.0000 </r>
       <r>    27.1743     0.0000     0.0000 </r>
       <r>    27.3293     0.0000     0.0000 </r>
       <r>    27.4843     0.0000     0.0000 </r>
       <r>    27.6393     0.0000     0.0000 </r>
       <r>    27.7944     0.0000     0.0000 </r>
       <r>    27.9494     0.0000     0.0000 </r>
       <r>    28.1044     0.0000     0.0000 </r>
       <r>    28.2594     0.0000     0.0000 </r>
       <r>    28.4144     0.0000     0.0000 </r>
       <r>    28.5694     0.0000     0.0000 </r>
       <r>    28.7244     0.0000     0.0000 </r>
       <r>    28.8794     0.0000     0.0000 </r>
       <r>    29.0345     0.0000     0.0000 </r>
       <r>    29.1895     0.0000     0.0000 </r>
       <r>    29.3445     0.0000     0.0000 </r>
       <r>    29.4995     0.0000     0.0000 </r>
       <r>    29.6545     0.0000     0.0000 </r>
       <r>    29.8095     0.0000     0.0000 </r>
       <r>    29.9645     0.0000     0.0000 </r>
       <r>    30.1195     0.0000     0.0000 </r>
       <r>    30.2746     0.0000     0.0000 </r>
       <r>    30.4296     0.0000     0.0000 </r>
       <r>    30.5846     0.0000     0.0000 </r>
       <r>    30.7396     0.0000     0.0000 </r>
       <r>    30.8946     0.0000     0.0000 </r>
       <r>    31.0496     0.0000     0.0000 </r>
       <r>    31.2046     0.0000     0.0000 </r>
       <r>    31.3597     0.0000     0.0000 </r>
       <r>    31.5147     0.0000     0.0000 </r>
       <r>    31.6697     0.0000     0.0000 </r>
       <r>    31.8247     0.0000     0.0000 </r>
       <r>    31.9797     0.0000     0.0000 </r>
       <r>    32.1347     0.0000     0.0000 </r>
       <r>    32.2897     0.0000     0.0000 </r>
       <r>    32.4447     0.0000     0.0000 </r>
       <r>    32.5998     0.0000     0.0000 </r>
       <r>    32.7548     0.0000     0.0000 </r>
       <r>    32.9098     0.0000     0.0000 </r>
       <r>    33.0648     0.0000     0.0000 </r>
       <r>    33.2198     0.0000     0.0000 </r>
       <r>    33.3748     0.0000     0.0000 </r>
       <r>    33.5298     0.0000     0.0000 </r>
       <r>    33.6849     0.0000     0.0000 </r>
       <r>    33.8399     0.0000     0.0000 </r>
       <r>    33.9949     0.0000     0.0000 </r>
       <r>    34.1499     0.0000     0.0000 </r>
       <r>    34.3049     0.0000     0.0000 </r>
       <r>    34.4599     0.0000     0.0000 </r>
       <r>    34.6149     0.0000     0.0000 </r>
       <r>    34.7699     0.0000     0.0000 </r>
       <r>    34.9250     0.0000     0.0000 </r>
       <r>    35.0800     0.0000     0.0000 </r>
       <r>    35.2350     0.0000     0.0000 </r>
       <r>    35.3900     0.0000     0.0000 </r>
       <r>    35.5450     0.0000     0.0000 </r>
       <r>    35.7000     0.0000     0.0000 </r>
       <r>    35.8550     0.0000     0.0000 </r>
      </set>
      <set comment="spin 4">
       <r>   -10.6489     0.0000     0.0000 </r>
       <r>   -10.4939     0.0000     0.0000 </r>
       <r>   -10.3389     0.0000     0.0000 </r>
       <r>   -10.1839     0.0000     0.0000 </r>
       <r>   -10.0289     0.0000     0.0000 </r>
       <r>    -9.8738     0.0000     0.0000 </r>
       <r>    -9.7188     0.0000     0.0000 </r>
       <r>    -9.5638     0.0000     0.0000 </r>
       <r>    -9.4088     0.0000     0.0000 </r>
       <r>    -9.2538     0.0000     0.0000 </r>
       <r>    -9.0988     0.0000     0.0000 </r>
       <r>    -8.9438     0.0000     0.0000 </r>
       <r>    -8.7888     0.0000     0.0000 </r>
       <r>    -8.6337     0.0000     0.0000 </r>
       <r>    -8.4787     0.0000     0.0000 </r>
       <r>    -8.3237     0.0000     0.0000 </r>
       <r>    -8.1687     0.0000     0.0000 </r>
       <r>    -8.0137     0.0000     0.0000 </r>
       <r>    -7.8587     0.0000     0.0000 </r>
       <r>    -7.7037     0.0000     0.0000 </r>
       <r>    -7.5486     0.0000     0.0000 </r>
       <r>    -7.3936     0.0000     0.0000 </r>
       <r>    -7.2386     0.0000     0.0000 </r>
       <r>    -7.0836     0.0000     0.0000 </r>
       <r>    -6.9286     0.0000     0.0000 </r>
       <r>    -6.7736     0.0000     0.0000 </r>
       <r>    -6.6186     0.0000     0.0000 </r>
       <r>    -6.4636     0.0000     0.0000 </r>
       <r>    -6.3085     0.0000     0.0000 </r>
       <r>    -6.1535     0.0000     0.0000 </r>
       <r>    -5.9985     0.0000     0.0000 </r>
       <r>    -5.8435     0.0000     0.0000 </r>
       <r>    -5.6885     0.0000     0.0000 </r>
       <r>    -5.5335     0.0000     0.0000 </r>
       <r>    -5.3785     0.0000     0.0000 </r>
       <r>    -5.2234     0.0000     0.0000 </r>
       <r>    -5.0684     0.0000     0.0000 </r>
       <r>    -4.9134     0.0000     0.0000 </r>
       <r>    -4.7584     0.0000     0.0000 </r>
       <r>    -4.6034     0.0000     0.0000 </r>
       <r>    -4.4484     0.0000     0.0000 </r>
       <r>    -4.2934     0.0000     0.0000 </r>
       <r>    -4.1384     0.0000     0.0000 </r>
       <r>    -3.9833     0.0000     0.0000 </r>
       <r>    -3.8283     0.0000     0.0000 </r>
       <r>    -3.6733     0.0000     0.0000 </r>
       <r>    -3.5183     0.0000     0.0000 </r>
       <r>    -3.3633     0.0000     0.0000 </r>
       <r>    -3.2083     0.0000     0.0000 </r>
       <r>    -3.0533     0.0000     0.0000 </r>
       <r>    -2.8983     0.0000     0.0000 </r>
       <r>    -2.7432     0.0000     0.0000 </r>
       <r>    -2.5882     0.0000     0.0000 </r>
       <r>    -2.4332     0.0000     0.0000 </r>
       <r>    -2.2782     0.0000     0.0000 </r>
       <r>    -2.1232     0.0000     0.0000 </r>
       <r>    -1.9682     0.0000     0.0000 </r>
       <r>    -1.8132     0.0000     0.0000 </r>
       <r>    -1.6581     0.0000     0.0000 </r>
       <r>    -1.5031     0.0000     0.0000 </r>
       <r>    -1.3481     0.0000     0.0000 </r>
       <r>    -1.1931     0.0000     0.0000 </r>
       <r>    -1.0381     0.0000     0.0000 </r>
       <r>    -0.8831     0.0000     0.0000 </r>
       <r>    -0.7281     0.0000     0.0000 </r>
       <r>    -0.5731     0.0000     0.0000 </r>
       <r>    -0.4180     0.0000     0.0000 </r>
       <r>    -0.2630     0.0000     0.0000 </r>
       <r>    -0.1080     0.0000     0.0000 </r>
       <r>     0.0470     0.0000     0.0000 </r>
       <r>     0.2020     0.0000     0.0000 </r>
       <r>     0.3570     0.0000     0.0000 </r>
       <r>     0.5120     0.0000     0.0000 </r>
       <r>     0.6671     0.0000     0.0000 </r>
       <r>     0.8221     0.0000     0.0000 </r>
       <r>     0.9771     0.0000     0.0000 </r>
       <r>     1.1321     0.0000     0.0000 </r>
       <r>     1.2871     0.0000     0.0000 </r>
       <r>     1.4421     0.0000     0.0000 </r>
       <r>     1.5971     0.0000     0.0000 </r>
       <r>     1.7521     0.0000     0.0000 </r>
       <r>     1.9072     0.0000     0.0000 </r>
       <r>     2.0622     0.0000     0.0000 </r>
       <r>     2.2172     0.0000     0.0000 </r>
       <r>     2.3722     0.0000     0.0000 </r>
       <r>     2.5272     0.0000     0.0000 </r>
       <r>     2.6822     0.0000     0.0000 </r>
       <r>     2.8372     0.0000     0.0000 </r>
       <r>     2.9922     0.0000     0.0000 </r>
       <r>     3.1473     0.0000     0.0000 </r>
       <r>     3.3023     0.0000     0.0000 </r>
       <r>     3.4573     0.0000     0.0000 </r>
       <r>     3.6123     0.0000     0.0000 </r>
       <r>     3.7673     0.0000     0.0000 </r>
       <r>     3.9223     0.0000     0.0000 </r>
       <r>     4.0773     0.0000     0.0000 </r>
       <r>     4.2324     0.0000     0.0000 </r>
       <r>     4.3874     0.0000     0.0000 </r>
       <r>     4.5424     0.0000     0.0000 </r>
       <r>     4.6974     0.0000     0.0000 </r>
       <r>     4.8524     0.0000     0.0000 </r>
       <r>     5.0074     0.0000     0.0000 </r>
       <r>     5.1624     0.0000     0.0000 </r>
       <r>     5.3174     0.0000     0.0000 </r>
       <r>     5.4725     0.0000     0.0000 </r>
       <r>     5.6275     0.0000     0.0000 </r>
       <r>     5.7825     0.0000     0.0000 </r>
       <r>     5.9375     0.0000     0.0000 </r>
       <r>     6.0925     0.0000     0.0000 </r>
       <r>     6.2475     0.0000     0.0000 </r>
       <r>     6.4025     0.0000     0.0000 </r>
       <r>     6.5576     0.0000     0.0000 </r>
       <r>     6.7126     0.0000     0.0000 </r>
       <r>     6.8676     0.0000     0.0000 </r>
       <r>     7.0226     0.0000     0.0000 </r>
       <r>     7.1776     0.0000     0.0000 </r>
       <r>     7.3326     0.0000     0.0000 </r>
       <r>     7.4876     0.0000     0.0000 </r>
       <r>     7.6426     0.0000     0.0000 </r>
       <r>     7.7977     0.0000     0.0000 </r>
       <r>     7.9527     0.0000     0.0000 </r>
       <r>     8.1077     0.0000     0.0000 </r>
       <r>     8.2627     0.0000     0.0000 </r>
       <r>     8.4177     0.0000     0.0000 </r>
       <r>     8.5727     0.0000     0.0000 </r>
       <r>     8.7277     0.0000     0.0000 </r>
       <r>     8.8827     0.0000     0.0000 </r>
       <r>     9.0378     0.0000     0.0000 </r>
       <r>     9.1928     0.0000     0.0000 </r>
       <r>     9.3478     0.0000     0.0000 </r>
       <r>     9.5028     0.0000     0.0000 </r>
       <r>     9.6578     0.0000     0.0000 </r>
       <r>     9.8128     0.0000     0.0000 </r>
       <r>     9.9678     0.0000     0.0000 </r>
       <r>    10.1229     0.0000     0.0000 </r>
       <r>    10.2779     0.0000     0.0000 </r>
       <r>    10.4329     0.0000     0.0000 </r>
       <r>    10.5879     0.0000     0.0000 </r>
       <r>    10.7429     0.0000     0.0000 </r>
       <r>    10.8979     0.0000     0.0000 </r>
       <r>    11.0529     0.0000     0.0000 </r>
       <r>    11.2079     0.0000     0.0000 </r>
       <r>    11.3630     0.0000     0.0000 </r>
       <r>    11.5180     0.0000     0.0000 </r>
       <r>    11.6730     0.0000     0.0000 </r>
       <r>    11.8280     0.0000     0.0000 </r>
       <r>    11.9830     0.0000     0.0000 </r>
       <r>    12.1380     0.0000     0.0000 </r>
       <r>    12.2930     0.0000     0.0000 </r>
       <r>    12.4481     0.0000     0.0000 </r>
       <r>    12.6031     0.0000     0.0000 </r>
       <r>    12.7581     0.0000     0.0000 </r>
       <r>    12.9131     0.0000     0.0000 </r>
       <r>    13.0681     0.0000     0.0000 </r>
       <r>    13.2231     0.0000     0.0000 </r>
       <r>    13.3781     0.0000     0.0000 </r>
       <r>    13.5331     0.0000     0.0000 </r>
       <r>    13.6882     0.0000     0.0000 </r>
       <r>    13.8432     0.0000     0.0000 </r>
       <r>    13.9982     0.0000     0.0000 </r>
       <r>    14.1532     0.0000     0.0000 </r>
       <r>    14.3082     0.0000     0.0000 </r>
       <r>    14.4632     0.0000     0.0000 </r>
       <r>    14.6182     0.0000     0.0000 </r>
       <r>    14.7732     0.0000     0.0000 </r>
       <r>    14.9283     0.0000     0.0000 </r>
       <r>    15.0833     0.0000     0.0000 </r>
       <r>    15.2383     0.0000     0.0000 </r>
       <r>    15.3933     0.0000     0.0000 </r>
       <r>    15.5483     0.0000     0.0000 </r>
       <r>    15.7033     0.0000     0.0000 </r>
       <r>    15.8583     0.0000     0.0000 </r>
       <r>    16.0134     0.0000     0.0000 </r>
       <r>    16.1684     0.0000     0.0000 </r>
       <r>    16.3234     0.0000     0.0000 </r>
       <r>    16.4784     0.0000     0.0000 </r>
       <r>    16.6334     0.0000     0.0000 </r>
       <r>    16.7884     0.0000     0.0000 </r>
       <r>    16.9434     0.0000     0.0000 </r>
       <r>    17.0984     0.0000     0.0000 </r>
       <r>    17.2535     0.0000     0.0000 </r>
       <r>    17.4085     0.0000     0.0000 </r>
       <r>    17.5635     0.0000     0.0000 </r>
       <r>    17.7185     0.0000     0.0000 </r>
       <r>    17.8735     0.0000     0.0000 </r>
       <r>    18.0285     0.0000     0.0000 </r>
       <r>    18.1835     0.0000     0.0000 </r>
       <r>    18.3385     0.0000     0.0000 </r>
       <r>    18.4936     0.0000     0.0000 </r>
       <r>    18.6486     0.0000     0.0000 </r>
       <r>    18.8036     0.0000     0.0000 </r>
       <r>    18.9586     0.0000     0.0000 </r>
       <r>    19.1136     0.0000     0.0000 </r>
       <r>    19.2686     0.0000     0.0000 </r>
       <r>    19.4236     0.0000     0.0000 </r>
       <r>    19.5787     0.0000     0.0000 </r>
       <r>    19.7337     0.0000     0.0000 </r>
       <r>    19.8887     0.0000     0.0000 </r>
       <r>    20.0437     0.0000     0.0000 </r>
       <r>    20.1987     0.0000     0.0000 </r>
       <r>    20.3537     0.0000     0.0000 </r>
       <r>    20.5087     0.0000     0.0000 </r>
       <r>    20.6637     0.0000     0.0000 </r>
       <r>    20.8188     0.0000     0.0000 </r>
       <r>    20.9738     0.0000     0.0000 </r>
       <r>    21.1288     0.0000     0.0000 </r>
       <r>    21.2838     0.0000     0.0000 </r>
       <r>    21.4388     0.0000     0.0000 </r>
       <r>    21.5938     0.0000     0.0000 </r>
       <r>    21.7488     0.0000     0.0000 </r>
       <r>    21.9039     0.0000     0.0000 </r>
       <r>    22.0589     0.0000     0.0000 </r>
       <r>    22.2139     0.0000     0.0000 </r>
       <r>    22.3689     0.0000     0.0000 </r>
       <r>    22.5239     0.0000     0.0000 </r>
       <r>    22.6789     0.0000     0.0000 </r>
       <r>    22.8339     0.0000     0.0000 </r>
       <r>    22.9889     0.0000     0.0000 </r>
       <r>    23.1440     0.0000     0.0000 </r>
       <r>    23.2990     0.0000     0.0000 </r>
       <r>    23.4540     0.0000     0.0000 </r>
       <r>    23.6090     0.0000     0.0000 </r>
       <r>    23.7640     0.0000     0.0000 </r>
       <r>    23.9190     0.0000     0.0000 </r>
       <r>    24.0740     0.0000     0.0000 </r>
       <r>    24.2290     0.0000     0.0000 </r>
       <r>    24.3841     0.0000     0.0000 </r>
       <r>    24.5391     0.0000     0.0000 </r>
       <r>    24.6941     0.0000     0.0000 </r>
       <r>    24.8491     0.0000     0.0000 </r>
       <r>    25.0041     0.0000     0.0000 </r>
       <r>    25.1591     0.0000     0.0000 </r>
       <r>    25.3141     0.0000     0.0000 </r>
       <r>    25.4692     0.0000     0.0000 </r>
       <r>    25.6242     0.0000     0.0000 </r>
       <r>    25.7792     0.0000     0.0000 </r>
       <r>    25.9342     0.0000     0.0000 </r>
       <r>    26.0892     0.0000     0.0000 </r>
       <r>    26.2442     0.0000     0.0000 </r>
       <r>    26.3992     0.0000     0.0000 </r>
       <r>    26.5542     0.0000     0.0000 </r>
       <r>    26.7093     0.0000     0.0000 </r>
       <r>    26.8643     0.0000     0.0000 </r>
       <r>    27.0193     0.0000     0.0000 </r>
       <r>    27.1743     0.0000     0.0000 </r>
       <r>    27.3293     0.0000     0.0000 </r>
       <r>    27.4843     0.0000     0.0000 </r>
       <r>    27.6393     0.0000     0.0000 </r>
       <r>    27.7944     0.0000     0.0000 </r>
       <r>    27.9494     0.0000     0.0000 </r>
       <r>    28.1044     0.0000     0.0000 </r>
       <r>    28.2594     0.0000     0.0000 </r>
       <r>    28.4144     0.0000     0.0000 </r>
       <r>    28.5694     0.0000     0.0000 </r>
       <r>    28.7244     0.0000     0.0000 </r>
       <r>    28.8794     0.0000     0.0000 </r>
       <r>    29.0345     0.0000     0.0000 </r>
       <r>    29.1895     0.0000     0.0000 </r>
       <r>    29.3445     0.0000     0.0000 </r>
       <r>    29.4995     0.0000     0.0000 </r>
       <r>    29.6545     0.0000     0.0000 </r>
       <r>    29.8095     0.0000     0.0000 </r>
       <r>    29.9645     0.0000     0.0000 </r>
       <r>    30.1195     0.0000     0.0000 </r>
       <r>    30.2746     0.0000     0.0000 </r>
       <r>    30.4296     0.0000     0.0000 </r>
       <r>    30.5846     0.0000     0.0000 </r>
       <r>    30.7396     0.0000     0.0000 </r>
       <r>    30.8946     0.0000     0.0000 </r>
       <r>    31.0496     0.0000     0.0000 </r>
       <r>    31.2046     0.0000     0.0000 </r>
       <r>    31.3597     0.0000     0.0000 </r>
       <r>    31.5147     0.0000     0.0000 </r>
       <r>    31.6697     0.0000     0.0000 </r>
       <r>    31.8247     0.0000     0.0000 </r>
       <r>    31.9797     0.0000     0.0000 </r>
       <r>    32.1347     0.0000     0.0000 </r>
       <r>    32.2897     0.0000     0.0000 </r>
       <r>    32.4447     0.0000     0.0000 </r>
       <r>    32.5998     0.0000     0.0000 </r>
       <r>    32.7548     0.0000     0.0000 </r>
       <r>    32.9098     0.0000     0.0000 </r>
       <r>    33.0648     0.0000     0.0000 </r>
       <r>    33.2198     0.0000     0.0000 </r>
       <r>    33.3748     0.0000     0.0000 </r>
       <r>    33.5298     0.0000     0.0000 </r>
       <r>    33.6849     0.0000     0.0000 </r>
       <r>    33.8399     0.0000     0.0000 </r>
       <r>    33.9949     0.0000     0.0000 </r>
       <r>    34.1499     0.0000     0.0000 </r>
       <r>    34.3049     0.0000     0.0000 </r>
       <r>    34.4599     0.0000     0.0000 </r>
       <r>    34.6149     0.0000     0.0000 </r>
       <r>    34.7699     0.0000     0.0000 </r>
       <r>    34.9250     0.0000     0.0000 </r>
       <r>    35.0800     0.0000     0.0000 </r>
       <r>    35.2350     0.0000     0.0000 </r>
       <r>    35.3900     0.0000     0.0000 </r>
       <r>    35.5450     0.0000     0.0000 </r>
       <r>    35.7000     0.0000     0.0000 </r>
       <r>    35.8550     0.0000     0.0000 </r>
      </set>
     </set>
    </array>
   </total>
  </dos>
 </calculation>
 <structure name="finalpos" >
  <crystal>
   <varray name="basis" >
    <v>       0.00000000       3.02920000       3.02920000 </v>
    <v>       3.02920000       0.00000000       3.02920000 </v>
    <v>       3.02920000       3.02920000       0.00000000 </v>
   </varray>
   <i name="volume">     55.59219731 </i>
   <varray name="rec_basis" >
    <v>      -0.16506008       0.16506008       0.16506008 </v>
    <v>       0.16506008      -0.16506008       0.16506008 </v>
    <v>       0.16506008       0.16506008      -0.16506008 </v>
   </varray>
  </crystal>
  <varray name="positions" >
   <v>       0.00000000       0.00000000       0.00000000 </v>
   <v>       0.25000000       0.25000000       0.25000000 </v>
  </varray>
 </structure>
</modeling>
