<?xml version="1.0" encoding="ISO-8859-1"?>
<modeling>
 <generator>
  <i name="program" type="string">vasp </i>
  <i name="version" type="string">5.4.4.18Apr17-6-g9f103f2a35  </i>
  <i name="subversion" type="string">(build Sep 10 2021 22:26:18) complex            parallel </i>
  <i name="platform" type="string">LinuxIFC </i>
  <i name="date" type="string">2022 02 17 </i>
  <i name="time" type="string">14:34:57 </i>
 </generator>
 <incar>
  <i type="int" name="ISTART">     0</i>
  <i type="string" name="PREC">n</i>
  <i type="string" name="ALGO"> D</i>
  <i type="logical" name="LSORBIT"> T  </i>
  <v name="SAXIS">      0.00000000      0.00000000      1.00000000</v>
  <i type="int" name="ISPIN">     2</i>
  <i name="BMIX">      3.00000000</i>
  <i name="AMIN">      0.01000000</i>
  <i type="int" name="ICHARG">     2</i>
  <i name="EDIFF">      0.00001000</i>
  <i name="ENCUT">    400.00000000</i>
  <i type="int" name="NBANDS">    21</i>
  <v name="MAGMOM">      0.00000000      0.00000000      0.00000000      0.00000000      0.00000000      0.00000000</v>
  <i name="SIGMA">      0.05000000</i>
  <v type="int" name="KPOINT_BSE">    -1     0     0     0</v>
  <i type="string" name="GGA"> PE</i>
 </incar>
 <structure name="primitive_cell" >
  <crystal>
   <varray name="basis" >
    <v>       0.00000000       3.02920000       3.02920000 </v>
    <v>       3.02920000       0.00000000       3.02920000 </v>
    <v>       3.02920000       3.02920000       0.00000000 </v>
   </varray>
   <i name="volume">     55.59219731 </i>
   <varray name="rec_basis" >
    <v>      -0.16506008       0.16506008       0.16506008 </v>
    <v>       0.16506008      -0.16506008       0.16506008 </v>
    <v>       0.16506008       0.16506008      -0.16506008 </v>
   </varray>
  </crystal>
  <varray name="positions" >
   <v>       0.00000000       0.00000000       0.00000000 </v>
   <v>      -0.25000000      -0.25000000      -0.25000000 </v>
  </varray>
 </structure>
 <varray name="primitive_index" >
  <v type="int" >        1 </v>
  <v type="int" >        2 </v>
 </varray>
 <kpoints>
  <generation param="Gamma">
   <v type="int" name="divisions">       7        7        7 </v>
   <v name="usershift">      0.00000000       0.00000000       0.00000000 </v>
   <v name="genvec1">      0.14285714       0.00000000       0.00000000 </v>
   <v name="genvec2">      0.00000000       0.14285714       0.00000000 </v>
   <v name="genvec3">      0.00000000       0.00000000       0.14285714 </v>
   <v name="shift">      0.00000000       0.00000000       0.00000000 </v>
  </generation>
  <varray name="kpointlist" >
   <v>       0.00000000       0.00000000       0.00000000 </v>
   <v>       0.14285714       0.00000000       0.00000000 </v>
   <v>       0.28571429       0.00000000       0.00000000 </v>
   <v>       0.42857143       0.00000000       0.00000000 </v>
   <v>      -0.42857143       0.00000000       0.00000000 </v>
   <v>      -0.28571429       0.00000000       0.00000000 </v>
   <v>      -0.14285714       0.00000000       0.00000000 </v>
   <v>       0.14285714       0.14285714       0.00000000 </v>
   <v>       0.28571429       0.14285714       0.00000000 </v>
   <v>       0.42857143       0.14285714       0.00000000 </v>
   <v>      -0.42857143       0.14285714       0.00000000 </v>
   <v>      -0.28571429       0.14285714       0.00000000 </v>
   <v>      -0.14285714       0.14285714       0.00000000 </v>
   <v>       0.28571429       0.28571429       0.00000000 </v>
   <v>       0.42857143       0.28571429       0.00000000 </v>
   <v>      -0.42857143       0.28571429       0.00000000 </v>
   <v>      -0.28571429       0.28571429       0.00000000 </v>
   <v>      -0.14285714       0.28571429       0.00000000 </v>
   <v>       0.42857143       0.42857143       0.00000000 </v>
   <v>      -0.42857143       0.42857143       0.00000000 </v>
   <v>      -0.28571429       0.42857143       0.00000000 </v>
   <v>      -0.14285714       0.42857143       0.00000000 </v>
   <v>      -0.28571429      -0.42857143       0.00000000 </v>
   <v>      -0.14285714      -0.42857143       0.00000000 </v>
   <v>      -0.14285714      -0.28571429       0.00000000 </v>
   <v>       0.42857143       0.28571429       0.14285714 </v>
   <v>      -0.42857143       0.28571429       0.14285714 </v>
   <v>      -0.28571429       0.28571429       0.14285714 </v>
   <v>      -0.42857143       0.42857143       0.14285714 </v>
   <v>      -0.28571429       0.42857143       0.14285714 </v>
  </varray>
  <varray name="weights" >
   <v>       0.00291545 </v>
   <v>       0.01166181 </v>
   <v>       0.01166181 </v>
   <v>       0.01166181 </v>
   <v>       0.01166181 </v>
   <v>       0.01166181 </v>
   <v>       0.01166181 </v>
   <v>       0.01749271 </v>
   <v>       0.03498542 </v>
   <v>       0.03498542 </v>
   <v>       0.03498542 </v>
   <v>       0.03498542 </v>
   <v>       0.03498542 </v>
   <v>       0.01749271 </v>
   <v>       0.03498542 </v>
   <v>       0.03498542 </v>
   <v>       0.03498542 </v>
   <v>       0.03498542 </v>
   <v>       0.01749271 </v>
   <v>       0.03498542 </v>
   <v>       0.03498542 </v>
   <v>       0.03498542 </v>
   <v>       0.03498542 </v>
   <v>       0.03498542 </v>
   <v>       0.03498542 </v>
   <v>       0.06997085 </v>
   <v>       0.06997085 </v>
   <v>       0.06997085 </v>
   <v>       0.06997085 </v>
   <v>       0.06997085 </v>
  </varray>
 </kpoints>
 <parameters>
  <separator name="general" >
   <i type="string" name="SYSTEM">unknown system</i>
   <i type="logical" name="LCOMPAT"> F  </i>
  </separator>
  <separator name="electronic" >
   <i type="string" name="PREC">n</i>
   <i name="ENMAX">    400.00000000</i>
   <i name="ENAUG">    462.75800000</i>
   <i name="EDIFF">      0.00001000</i>
   <i type="int" name="IALGO">    53</i>
   <i type="int" name="IWAVPR">    10</i>
   <i type="int" name="NBANDS">    21</i>
   <i name="NELECT">      8.00000000</i>
   <i type="int" name="TURBO">     0</i>
   <i type="int" name="IRESTART">     0</i>
   <i type="int" name="NREBOOT">     0</i>
   <i type="int" name="NMIN">     0</i>
   <i name="EREF">      0.00000000</i>
   <separator name="electronic smearing" >
    <i type="int" name="ISMEAR">     1</i>
    <i name="SIGMA">      0.05000000</i>
    <i name="KSPACING">      0.50000000</i>
    <i type="logical" name="KGAMMA"> T  </i>
   </separator>
   <separator name="electronic projectors" >
    <i type="logical" name="LREAL"> F  </i>
    <v name="ROPT">      0.00000000      0.00000000</v>
    <i type="int" name="LMAXPAW">  -100</i>
    <i type="int" name="LMAXMIX">     2</i>
    <i type="logical" name="NLSPLINE"> F  </i>
   </separator>
   <separator name="electronic startup" >
    <i type="int" name="ISTART">     0</i>
    <i type="int" name="ICHARG">     2</i>
    <i type="int" name="INIWAV">     1</i>
   </separator>
   <separator name="electronic spin" >
    <i type="int" name="ISPIN">     1</i>
    <i type="logical" name="LNONCOLLINEAR"> T  </i>
    <v name="MAGMOM">      0.00000000      0.00000000      0.00000000      0.00000000      0.00000000      0.00000000</v>
    <i name="NUPDOWN">     -1.00000000</i>
    <i type="logical" name="LSORBIT"> T  </i>
    <v name="SAXIS">      0.00000000      0.00000000      1.00000000</v>
    <i type="logical" name="LSPIRAL"> F  </i>
    <v name="QSPIRAL">      0.00000000      0.00000000      0.00000000</v>
    <i type="logical" name="LZEROZ"> F  </i>
   </separator>
   <separator name="electronic exchange-correlation" >
    <i type="logical" name="LASPH"> F  </i>
    <i type="logical" name="LMETAGGA"> F  </i>
   </separator>
   <separator name="electronic convergence" >
    <i type="int" name="NELM">    60</i>
    <i type="int" name="NELMDL">    -5</i>
    <i type="int" name="NELMIN">     2</i>
    <i name="ENINI">    400.00000000</i>
    <separator name="electronic convergence detail" >
     <i type="logical" name="LDIAG"> T  </i>
     <i type="logical" name="LSUBROT"> F  </i>
     <i name="WEIMIN">      0.00000000</i>
     <i name="EBREAK">      0.00000012</i>
     <i name="DEPER">      0.30000000</i>
     <i type="int" name="NRMM">     4</i>
     <i name="TIME">      0.40000000</i>
    </separator>
   </separator>
   <separator name="electronic mixer" >
    <i name="AMIX">      0.40000000</i>
    <i name="BMIX">      3.00000000</i>
    <i name="AMIN">      0.01000000</i>
    <i name="AMIX_MAG">      1.60000000</i>
    <i name="BMIX_MAG">      3.00000000</i>
    <separator name="electronic mixer details" >
     <i type="int" name="IMIX">     4</i>
     <i type="logical" name="MIXFIRST"> F  </i>
     <i type="int" name="MAXMIX">   -45</i>
     <i name="WC">    100.00000000</i>
     <i type="int" name="INIMIX">     1</i>
     <i type="int" name="MIXPRE">     1</i>
     <i type="int" name="MREMOVE">     5</i>
    </separator>
   </separator>
   <separator name="electronic dipolcorrection" >
    <i type="logical" name="LDIPOL"> F  </i>
    <i type="logical" name="LMONO"> F  </i>
    <i type="int" name="IDIPOL">     0</i>
    <i name="EPSILON">      1.00000000</i>
    <v name="DIPOL">   -100.00000000   -100.00000000   -100.00000000</v>
    <i name="EFIELD">      0.00000000</i>
   </separator>
  </separator>
  <separator name="grids" >
   <i type="int" name="NGX">    24</i>
   <i type="int" name="NGY">    24</i>
   <i type="int" name="NGZ">    24</i>
   <i type="int" name="NGXF">    48</i>
   <i type="int" name="NGYF">    48</i>
   <i type="int" name="NGZF">    48</i>
   <i type="logical" name="ADDGRID"> F  </i>
  </separator>
  <separator name="ionic" >
   <i type="int" name="NSW">     0</i>
   <i type="int" name="IBRION">    -1</i>
   <i type="int" name="MDALGO">     0</i>
   <i type="int" name="ISIF">     2</i>
   <i name="PSTRESS">      0.00000000</i>
   <i name="EDIFFG">      0.00010000</i>
   <i type="int" name="NFREE">     0</i>
   <i name="POTIM">      0.50000000</i>
   <i name="SMASS">     -3.00000000</i>
   <i name="SCALEE">      1.00000000</i>
  </separator>
  <separator name="ionic md" >
   <i name="TEBEG">      0.00010000</i>
   <i name="TEEND">      0.00010000</i>
   <i type="int" name="NBLOCK">     1</i>
   <i type="int" name="KBLOCK">     1</i>
   <i type="int" name="NPACO">   256</i>
   <i name="APACO">     16.00000000</i>
  </separator>
  <separator name="symmetry" >
   <i type="int" name="ISYM">     2</i>
   <i name="SYMPREC">      0.00001000</i>
  </separator>
  <separator name="dos" >
   <i type="int" name="LORBIT">     0</i>
   <v name="RWIGS">     -1.00000000     -1.00000000</v>
   <i type="int" name="NEDOS">   301</i>
   <i name="EMIN">     10.00000000</i>
   <i name="EMAX">    -10.00000000</i>
   <i name="EFERMI">      0.00000000</i>
  </separator>
  <separator name="writing" >
   <i type="int" name="NWRITE">     2</i>
   <i type="logical" name="LWAVE"> T  </i>
   <i type="logical" name="LDOWNSAMPLE"> F  </i>
   <i type="logical" name="LCHARG"> T  </i>
   <i type="logical" name="LPARD"> F  </i>
   <i type="logical" name="LVTOT"> F  </i>
   <i type="logical" name="LVHAR"> F  </i>
   <i type="logical" name="LELF"> F  </i>
   <i type="logical" name="LOPTICS"> F  </i>
   <v name="STM">      0.00000000      0.00000000      0.00000000      0.00000000      0.00000000      0.00000000      0.00000000</v>
  </separator>
  <separator name="performance" >
   <i type="int" name="NPAR">     3</i>
   <i type="int" name="NSIM">     4</i>
   <i type="int" name="NBLK">    -1</i>
   <i type="logical" name="LPLANE"> T  </i>
   <i type="logical" name="LSCALAPACK"> T  </i>
   <i type="logical" name="LSCAAWARE"> F  </i>
   <i type="logical" name="LSCALU"> F  </i>
   <i type="logical" name="LASYNC"> F  </i>
   <i type="logical" name="LORBITALREAL"> F  </i>
  </separator>
  <separator name="miscellaneous" >
   <i type="int" name="IDIOT">     3</i>
   <i type="int" name="ISPECIAL">     0</i>
   <i type="logical" name="LMUSIC"> F  </i>
   <v name="POMASS">    114.82000000     74.92200000</v>
   <v name="DARWINR">      0.00000000      0.00000000</v>
   <v name="DARWINV">      1.00000000      1.00000000</v>
   <i type="logical" name="LCORR"> T  </i>
  </separator>
  <i type="logical" name="GGA_COMPAT"> T  </i>
  <i type="logical" name="LBERRY"> F  </i>
  <i type="int" name="ICORELEVEL">     0</i>
  <i type="logical" name="LDAU"> F  </i>
  <i type="int" name="I_CONSTRAINED_M">     0</i>
  <separator name="electronic exchange-correlation" >
   <i type="string" name="GGA">PE</i>
   <i type="int" name="VOSKOWN">     0</i>
   <i type="logical" name="LHFCALC"> F  </i>
   <i type="string" name="PRECFOCK"></i>
   <i type="logical" name="LSYMGRAD"> F  </i>
   <i type="logical" name="LHFONE"> F  </i>
   <i type="logical" name="LRHFCALC"> F  </i>
   <i type="logical" name="LTHOMAS"> F  </i>
   <i type="logical" name="LMODELHF"> F  </i>
   <i name="ENCUT4O">     -1.00000000</i>
   <i type="int" name="EXXOEP">     0</i>
   <i type="int" name="FOURORBIT">     0</i>
   <i name="AEXX">      0.00000000</i>
   <i name="HFALPHA">      0.00000000</i>
   <i name="MCALPHA">      0.00000000</i>
   <i name="ALDAX">      1.00000000</i>
   <i name="AGGAX">      1.00000000</i>
   <i name="ALDAC">      1.00000000</i>
   <i name="AGGAC">      1.00000000</i>
   <i type="int" name="NKREDX">     1</i>
   <i type="int" name="NKREDY">     1</i>
   <i type="int" name="NKREDZ">     1</i>
   <i type="logical" name="SHIFTRED"> F  </i>
   <i type="logical" name="ODDONLY"> F  </i>
   <i type="logical" name="EVENONLY"> F  </i>
   <i type="int" name="LMAXFOCK">     0</i>
   <i type="int" name="NMAXFOCKAE">     0</i>
   <i type="logical" name="LFOCKAEDFT"> F  </i>
   <i name="HFSCREEN">      0.00000000</i>
   <i name="HFSCREENC">      0.00000000</i>
   <i type="int" name="NBANDSGWLOW">     0</i>
  </separator>
  <separator name="vdW DFT" >
   <i type="logical" name="LUSE_VDW"> F  </i>
   <i name="Zab_VDW">     -0.84910000</i>
   <i name="PARAM1">      0.12340000</i>
   <i name="PARAM2">      1.00000000</i>
   <i name="PARAM3">      0.00000000</i>
  </separator>
  <separator name="model GW" >
   <i type="int" name="MODEL_GW">     0</i>
   <i name="MODEL_EPS0">     16.67765919</i>
   <i name="MODEL_ALPHA">      1.00000000</i>
  </separator>
  <separator name="linear response parameters" >
   <i type="logical" name="LEPSILON"> F  </i>
   <i type="logical" name="LRPA"> F  </i>
   <i type="logical" name="LNABLA"> F  </i>
   <i type="logical" name="LVEL"> F  </i>
   <i type="int" name="KINTER">     0</i>
   <i name="CSHIFT">      0.10000000</i>
   <i name="OMEGAMAX">     -1.00000000</i>
   <i name="DEG_THRESHOLD">      0.00200000</i>
   <i name="RTIME">     -0.10000000</i>
   <i name="WPLASMAI">      0.00000000</i>
   <v name="DFIELD">      0.00000000      0.00000000      0.00000000</v>
   <v name="WPLASMA">      0.00000000      0.00000000      0.00000000      0.00000000      0.00000000      0.00000000      0.00000000      0.00000000      0.00000000</v>
  </separator>
  <separator name="orbital magnetization" >
   <i type="logical" name="NUCIND"> F  </i>
   <v name="MAGPOS">      0.00000000      0.00000000      0.00000000</v>
   <i type="logical" name="LNICSALL"> T  </i>
   <i type="logical" name="ORBITALMAG"> F  </i>
   <i type="logical" name="LMAGBLOCH"> F  </i>
   <i type="logical" name="LCHIMAG"> F  </i>
   <i type="logical" name="LGAUGE"> T  </i>
   <i type="int" name="MAGATOM">     0</i>
   <v name="MAGDIPOL">      0.00000000      0.00000000      0.00000000</v>
   <v name="AVECCONST">      0.00000000      0.00000000      0.00000000</v>
  </separator>
  <separator name="response functions" >
   <i type="logical" name="LADDER"> F  </i>
   <i type="logical" name="LRPAFORCE"> F  </i>
   <i type="logical" name="LFXC"> F  </i>
   <i type="logical" name="LHARTREE"> T  </i>
   <i type="int" name="IBSE">     0</i>
   <v type="int" name="KPOINT">    -1     0     0     0</v>
   <i type="logical" name="LTCTE"> F  </i>
   <i type="logical" name="LTETE"> F  </i>
   <i type="logical" name="LTRIPLET"> F  </i>
   <i type="logical" name="LFXCEPS"> F  </i>
   <i type="logical" name="LFXHEG"> F  </i>
   <i type="int" name="NATURALO">     2</i>
   <i type="logical" name="L2ORDER"> F  </i>
   <i type="logical" name="LMP2LT"> F  </i>
   <i type="logical" name="LUSEW"> F  </i>
   <i name="ENCUTGW">     -2.00000000</i>
   <i name="ENCUTGWSOFT">     -2.00000000</i>
   <i name="ENCUTLF">     -1.00000000</i>
   <i type="int" name="LMAXMP2">    -1</i>
   <i name="SCISSOR">      0.00000000</i>
   <i type="int" name="NOMEGA">     0</i>
   <i type="int" name="NOMEGAR">     0</i>
   <i type="int" name="NBANDSGW">    -1</i>
   <i type="int" name="NBANDSO">    -1</i>
   <i type="int" name="NBANDSV">    -1</i>
   <i type="int" name="NELM">     1</i>
   <i type="int" name="NELMHF">     1</i>
   <i type="int" name="DIM">     3</i>
   <i type="int" name="ANTIRES">     0</i>
   <i name="OMEGAMAX">    -30.00000000</i>
   <i name="OMEGAMIN">    -30.00000000</i>
   <i name="OMEGATL">   -200.00000000</i>
   <i type="int" name="OMEGAGRID">   140</i>
   <i name="CSHIFT">     -0.10000000</i>
   <i type="logical" name="SELFENERGY"> F  </i>
   <i type="logical" name="LSPECTRAL"> F  </i>
   <i type="logical" name="LSPECTRALGW"> F  </i>
   <i type="logical" name="LSINGLES"> F  </i>
   <i type="logical" name="LFERMIGW"> F  </i>
   <i type="logical" name="ODDONLYGW"> F  </i>
   <i type="logical" name="EVENONLYGW"> F  </i>
   <i type="int" name="NKREDLFX">     1</i>
   <i type="int" name="NKREDLFY">     1</i>
   <i type="int" name="NKREDLFZ">     1</i>
   <i type="int" name="MAXMEM">  2800</i>
   <i type="int" name="TELESCOPE">     0</i>
   <i type="int" name="TAUPAR">     1</i>
   <i type="int" name="OMEGAPAR">    -1</i>
   <i name="LAMBDA">      1.00000000</i>
  </separator>
  <separator name="External order field" >
   <i name="OFIELD_KAPPA">      0.00000000</i>
   <v name="OFIELD_K">      0.00000000      0.00000000      0.00000000</v>
   <i name="OFIELD_Q6_NEAR">      0.00000000</i>
   <i name="OFIELD_Q6_FAR">      0.00000000</i>
   <i name="OFIELD_A">      0.00000000</i>
  </separator>
 </parameters>
 <atominfo>
  <atoms>       2 </atoms>
  <types>       2 </types>
  <array name="atoms" >
   <dimension dim="1">ion</dimension>
   <field type="string">element</field>
   <field type="int">atomtype</field>
   <set>
    <rc><c>In</c><c>   1</c></rc>
    <rc><c>As</c><c>   2</c></rc>
   </set>
  </array>
  <array name="atomtypes" >
   <dimension dim="1">type</dimension>
   <field type="int">atomspertype</field>
   <field type="string">element</field>
   <field>mass</field>
   <field>valence</field>
   <field type="string">pseudopotential</field>
   <set>
    <rc><c>   1</c><c>In</c><c>    114.82000000</c><c>      3.00000000</c><c>  PAW_PBE In 08Apr2002                  </c></rc>
    <rc><c>   1</c><c>As</c><c>     74.92200000</c><c>      5.00000000</c><c>  PAW_PBE As 22Sep2009                  </c></rc>
   </set>
  </array>
 </atominfo>
 <structure name="initialpos" >
  <crystal>
   <varray name="basis" >
    <v>       0.00000000       3.02920000       3.02920000 </v>
    <v>       3.02920000       0.00000000       3.02920000 </v>
    <v>       3.02920000       3.02920000       0.00000000 </v>
   </varray>
   <i name="volume">     55.59219731 </i>
   <varray name="rec_basis" >
    <v>      -0.16506008       0.16506008       0.16506008 </v>
    <v>       0.16506008      -0.16506008       0.16506008 </v>
    <v>       0.16506008       0.16506008      -0.16506008 </v>
   </varray>
  </crystal>
  <varray name="positions" >
   <v>       0.00000000       0.00000000       0.00000000 </v>
   <v>       0.75000000       0.75000000       0.75000000 </v>
  </varray>
 </structure>
 <calculation>
  <scstep>
   <time name="total">    0.23    0.23</time>
   <energy>
    <i name="alphaZ">      6.67624893 </i>
    <i name="ewald">   -213.84743004 </i>
    <i name="hartreedc">    -21.29595069 </i>
    <i name="XCdc">    -67.69638834 </i>
    <i name="pawpsdc">    241.28716127 </i>
    <i name="pawaedc">   -160.47085023 </i>
    <i name="eentropy">      0.00009680 </i>
    <i name="bandstr">     27.16316500 </i>
    <i name="atom">    223.97621261 </i>
    <i name="e_fr_energy">     35.79226531 </i>
    <i name="e_wo_entrp">     35.79216851 </i>
    <i name="e_0_energy">     35.79223305 </i>
   </energy>
  </scstep>
  <scstep>
   <time name="total">    0.20    0.20</time>
   <energy>
    <i name="e_fr_energy">     -1.14525572 </i>
    <i name="e_wo_entrp">     -1.14531066 </i>
    <i name="e_0_energy">     -1.14527403 </i>
   </energy>
  </scstep>
  <scstep>
   <time name="total">    0.20    0.20</time>
   <energy>
    <i name="e_fr_energy">     -6.89727158 </i>
    <i name="e_wo_entrp">     -6.89729913 </i>
    <i name="e_0_energy">     -6.89728076 </i>
   </energy>
  </scstep>
  <scstep>
   <time name="total">    0.20    0.20</time>
   <energy>
    <i name="e_fr_energy">     -7.77396715 </i>
    <i name="e_wo_entrp">     -7.77399118 </i>
    <i name="e_0_energy">     -7.77397516 </i>
   </energy>
  </scstep>
  <scstep>
   <time name="total">    0.24    0.24</time>
   <energy>
    <i name="e_fr_energy">     -7.92626680 </i>
    <i name="e_wo_entrp">     -7.92625295 </i>
    <i name="e_0_energy">     -7.92626218 </i>
   </energy>
  </scstep>
  <scstep>
   <time name="total">    0.19    0.19</time>
   <energy>
    <i name="e_fr_energy">     -7.39135624 </i>
    <i name="e_wo_entrp">     -7.39132676 </i>
    <i name="e_0_energy">     -7.39134641 </i>
   </energy>
  </scstep>
  <scstep>
   <time name="total">    0.17    0.18</time>
   <energy>
    <i name="e_fr_energy">     -7.58942106 </i>
    <i name="e_wo_entrp">     -7.58937523 </i>
    <i name="e_0_energy">     -7.58940578 </i>
   </energy>
  </scstep>
  <scstep>
   <time name="total">    0.17    0.17</time>
   <energy>
    <i name="e_fr_energy">     -7.63971380 </i>
    <i name="e_wo_entrp">     -7.63966986 </i>
    <i name="e_0_energy">     -7.63969915 </i>
   </energy>
  </scstep>
  <scstep>
   <time name="total">    0.17    0.17</time>
   <energy>
    <i name="e_fr_energy">     -7.65162167 </i>
    <i name="e_wo_entrp">     -7.65157987 </i>
    <i name="e_0_energy">     -7.65160774 </i>
   </energy>
  </scstep>
  <scstep>
   <time name="total">    0.17    0.17</time>
   <energy>
    <i name="e_fr_energy">     -7.66135833 </i>
    <i name="e_wo_entrp">     -7.66130910 </i>
    <i name="e_0_energy">     -7.66134192 </i>
   </energy>
  </scstep>
  <scstep>
   <time name="total">    0.17    0.17</time>
   <energy>
    <i name="e_fr_energy">     -7.66455397 </i>
    <i name="e_wo_entrp">     -7.66449192 </i>
    <i name="e_0_energy">     -7.66453328 </i>
   </energy>
  </scstep>
  <scstep>
   <time name="total">    0.17    0.17</time>
   <energy>
    <i name="e_fr_energy">     -7.66530331 </i>
    <i name="e_wo_entrp">     -7.66523129 </i>
    <i name="e_0_energy">     -7.66527930 </i>
   </energy>
  </scstep>
  <scstep>
   <time name="total">    0.17    0.17</time>
   <energy>
    <i name="e_fr_energy">     -7.66574883 </i>
    <i name="e_wo_entrp">     -7.66567119 </i>
    <i name="e_0_energy">     -7.66572295 </i>
   </energy>
  </scstep>
  <scstep>
   <time name="total">    0.17    0.17</time>
   <energy>
    <i name="e_fr_energy">     -7.66591488 </i>
    <i name="e_wo_entrp">     -7.66583456 </i>
    <i name="e_0_energy">     -7.66588811 </i>
   </energy>
  </scstep>
  <scstep>
   <time name="total">    0.17    0.17</time>
   <energy>
    <i name="e_fr_energy">     -7.66595282 </i>
    <i name="e_wo_entrp">     -7.66587133 </i>
    <i name="e_0_energy">     -7.66592565 </i>
   </energy>
  </scstep>
  <scstep>
   <time name="total">    0.17    0.17</time>
   <energy>
    <i name="e_fr_energy">     -7.66597501 </i>
    <i name="e_wo_entrp">     -7.66589305 </i>
    <i name="e_0_energy">     -7.66594769 </i>
   </energy>
  </scstep>
  <scstep>
   <time name="total">    0.17    0.17</time>
   <energy>
    <i name="e_fr_energy">     -7.66598695 </i>
    <i name="e_wo_entrp">     -7.66590480 </i>
    <i name="e_0_energy">     -7.66595957 </i>
   </energy>
  </scstep>
  <scstep>
   <time name="total">    0.19    0.19</time>
   <energy>
    <i name="alphaZ">      6.67624893 </i>
    <i name="ewald">   -213.84743004 </i>
    <i name="hartreedc">    -25.57333953 </i>
    <i name="XCdc">    -66.88336280 </i>
    <i name="pawpsdc">    532.55598500 </i>
    <i name="pawaedc">   -452.25454772 </i>
    <i name="eentropy">     -0.00008221 </i>
    <i name="bandstr">    -12.31567488 </i>
    <i name="atom">    223.97621261 </i>
    <i name="e_fr_energy">     -7.66599059 </i>
    <i name="e_wo_entrp">     -7.66590838 </i>
    <i name="e_0_energy">     -7.66596318 </i>
   </energy>
  </scstep>
  <structure>
   <crystal>
    <varray name="basis" >
     <v>       0.00000000       3.02920000       3.02920000 </v>
     <v>       3.02920000       0.00000000       3.02920000 </v>
     <v>       3.02920000       3.02920000       0.00000000 </v>
    </varray>
    <i name="volume">     55.59219731 </i>
    <varray name="rec_basis" >
     <v>      -0.16506008       0.16506008       0.16506008 </v>
     <v>       0.16506008      -0.16506008       0.16506008 </v>
     <v>       0.16506008       0.16506008      -0.16506008 </v>
    </varray>
   </crystal>
   <varray name="positions" >
    <v>       0.00000000       0.00000000       0.00000000 </v>
    <v>       0.75000000       0.75000000       0.75000000 </v>
   </varray>
  </structure>
  <varray name="forces" >
   <v>       0.00000000      -0.00000000       0.00000000 </v>
   <v>      -0.00000000       0.00000000      -0.00000000 </v>
  </varray>
  <varray name="stress" >
   <v>      44.30712920      -0.00000000       0.00000000 </v>
   <v>       0.00000000      44.30712920       0.00000000 </v>
   <v>       0.00000000       0.00000000      44.30712920 </v>
  </varray>
  <energy>
   <i name="e_fr_energy">     -7.66599059 </i>
   <i name="e_wo_entrp">     -7.66596318 </i>
   <i name="e_0_energy">     -0.00008221 </i>
  </energy>
  <time name="totalsc">    4.44    4.86</time>
  <eigenvalues>
   <array>
    <dimension dim="1">band</dimension>
    <dimension dim="2">kpoint</dimension>
    <dimension dim="3">spin</dimension>
    <field>eigene</field>
    <field>occ</field>
    <set>
     <set comment="spin 1">
      <set comment="kpoint 1">
       <r>   -8.5404    1.0000 </r>
       <r>   -8.5404    1.0000 </r>
       <r>    3.0276    1.0000 </r>
       <r>    3.0276    1.0000 </r>
       <r>    3.0966    1.0000 </r>
       <r>    3.0966    1.0000 </r>
       <r>    3.3804    0.5071 </r>
       <r>    3.3804    0.5066 </r>
       <r>    3.3804    0.5032 </r>
       <r>    3.3804    0.4831 </r>
       <r>    6.9065    0.0000 </r>
       <r>    6.9066    0.0000 </r>
       <r>    7.3562    0.0000 </r>
       <r>    7.3562    0.0000 </r>
       <r>    7.3562    0.0000 </r>
       <r>    7.3562    0.0000 </r>
       <r>   10.7889    0.0000 </r>
       <r>   10.7889    0.0000 </r>
       <r>   12.7824    0.0000 </r>
       <r>   12.7983    0.0000 </r>
       <r>   13.0855    0.0000 </r>
      </set>
      <set comment="kpoint 2">
       <r>   -8.3617    1.0000 </r>
       <r>   -8.3617    1.0000 </r>
       <r>    1.1180    1.0000 </r>
       <r>    1.1180    1.0000 </r>
       <r>    2.9012    1.0000 </r>
       <r>    2.9012    1.0000 </r>
       <r>    3.1394    1.0000 </r>
       <r>    3.1465    1.0000 </r>
       <r>    4.4662   -0.0000 </r>
       <r>    4.4662   -0.0000 </r>
       <r>    7.2955    0.0000 </r>
       <r>    7.2957    0.0000 </r>
       <r>    7.5558    0.0000 </r>
       <r>    7.5561    0.0000 </r>
       <r>    7.6981    0.0000 </r>
       <r>    7.6985    0.0000 </r>
       <r>   11.7608    0.0000 </r>
       <r>   11.8035    0.0000 </r>
       <r>   11.8719    0.0000 </r>
       <r>   11.8742    0.0000 </r>
       <r>   11.8933    0.0000 </r>
      </set>
      <set comment="kpoint 3">
       <r>   -7.8828    1.0000 </r>
       <r>   -7.8828    1.0000 </r>
       <r>   -0.8857    1.0000 </r>
       <r>   -0.8857    1.0000 </r>
       <r>    2.4714    1.0000 </r>
       <r>    2.4714    1.0000 </r>
       <r>    2.7168    1.0000 </r>
       <r>    2.7240    1.0000 </r>
       <r>    4.4830   -0.0000 </r>
       <r>    4.4830   -0.0000 </r>
       <r>    7.8507    0.0000 </r>
       <r>    7.8507    0.0000 </r>
       <r>    8.0904    0.0000 </r>
       <r>    8.0932    0.0000 </r>
       <r>    8.8626    0.0000 </r>
       <r>    8.8626    0.0000 </r>
       <r>   11.4899    0.0000 </r>
       <r>   11.5518    0.0000 </r>
       <r>   11.8879    0.0000 </r>
       <r>   11.8929    0.0000 </r>
       <r>   11.9428    0.0000 </r>
      </set>
      <set comment="kpoint 4">
       <r>   -7.3666    1.0000 </r>
       <r>   -7.3666    1.0000 </r>
       <r>   -2.2354    1.0000 </r>
       <r>   -2.2354    1.0000 </r>
       <r>    2.1950    1.0000 </r>
       <r>    2.1950    1.0000 </r>
       <r>    2.4466    1.0000 </r>
       <r>    2.4495    1.0000 </r>
       <r>    4.2815   -0.0000 </r>
       <r>    4.2815   -0.0000 </r>
       <r>    7.8905    0.0000 </r>
       <r>    7.8905    0.0000 </r>
       <r>    8.0681    0.0000 </r>
       <r>    8.0687    0.0000 </r>
       <r>   10.0385    0.0000 </r>
       <r>   10.0389    0.0000 </r>
       <r>   11.8802    0.0000 </r>
       <r>   11.8923    0.0000 </r>
       <r>   13.2715    0.0000 </r>
       <r>   13.3334    0.0000 </r>
       <r>   13.4729    0.0000 </r>
      </set>
      <set comment="kpoint 5">
       <r>   -7.3666    1.0000 </r>
       <r>   -7.3666    1.0000 </r>
       <r>   -2.2354    1.0000 </r>
       <r>   -2.2354    1.0000 </r>
       <r>    2.1950    1.0000 </r>
       <r>    2.1950    1.0000 </r>
       <r>    2.4466    1.0000 </r>
       <r>    2.4495    1.0000 </r>
       <r>    4.2815   -0.0000 </r>
       <r>    4.2815   -0.0000 </r>
       <r>    7.8905    0.0000 </r>
       <r>    7.8905    0.0000 </r>
       <r>    8.0683    0.0000 </r>
       <r>    8.0684    0.0000 </r>
       <r>   10.0385    0.0000 </r>
       <r>   10.0402    0.0000 </r>
       <r>   11.8797    0.0000 </r>
       <r>   12.6080    0.0000 </r>
       <r>   13.2698    0.0000 </r>
       <r>   13.3295    0.0000 </r>
       <r>   13.3909    0.0000 </r>
      </set>
      <set comment="kpoint 6">
       <r>   -7.8828    1.0000 </r>
       <r>   -7.8828    1.0000 </r>
       <r>   -0.8857    1.0000 </r>
       <r>   -0.8857    1.0000 </r>
       <r>    2.4714    1.0000 </r>
       <r>    2.4714    1.0000 </r>
       <r>    2.7168    1.0000 </r>
       <r>    2.7240    1.0000 </r>
       <r>    4.4830   -0.0000 </r>
       <r>    4.4830   -0.0000 </r>
       <r>    7.8507    0.0000 </r>
       <r>    7.8511    0.0000 </r>
       <r>    8.0902    0.0000 </r>
       <r>    8.0934    0.0000 </r>
       <r>    8.8623    0.0000 </r>
       <r>    8.8626    0.0000 </r>
       <r>   11.4901    0.0000 </r>
       <r>   11.6411    0.0000 </r>
       <r>   11.8910    0.0000 </r>
       <r>   11.8917    0.0000 </r>
       <r>   11.9547    0.0000 </r>
      </set>
      <set comment="kpoint 7">
       <r>   -8.3617    1.0000 </r>
       <r>   -8.3617    1.0000 </r>
       <r>    1.1180    1.0000 </r>
       <r>    1.1180    1.0000 </r>
       <r>    2.9012    1.0000 </r>
       <r>    2.9012    1.0000 </r>
       <r>    3.1394    1.0000 </r>
       <r>    3.1465    1.0000 </r>
       <r>    4.4662   -0.0000 </r>
       <r>    4.4662   -0.0000 </r>
       <r>    7.2955    0.0000 </r>
       <r>    7.2956    0.0000 </r>
       <r>    7.5558    0.0000 </r>
       <r>    7.5559    0.0000 </r>
       <r>    7.6980    0.0000 </r>
       <r>    7.6988    0.0000 </r>
       <r>   11.7665    0.0000 </r>
       <r>   11.8536    0.0000 </r>
       <r>   11.8770    0.0000 </r>
       <r>   11.8856    0.0000 </r>
       <r>   12.4454    0.0000 </r>
      </set>
      <set comment="kpoint 8">
       <r>   -8.3014    1.0000 </r>
       <r>   -8.3014    1.0000 </r>
       <r>    1.0529    1.0000 </r>
       <r>    1.0529    1.0000 </r>
       <r>    2.5376    1.0000 </r>
       <r>    2.5376    1.0000 </r>
       <r>    2.6827    1.0000 </r>
       <r>    2.6827    1.0000 </r>
       <r>    5.2372    0.0000 </r>
       <r>    5.2372    0.0000 </r>
       <r>    6.3662    0.0000 </r>
       <r>    6.3662    0.0000 </r>
       <r>    8.0625    0.0000 </r>
       <r>    8.0626    0.0000 </r>
       <r>    8.2654    0.0000 </r>
       <r>    8.2655    0.0000 </r>
       <r>   10.6146    0.0000 </r>
       <r>   10.6148    0.0000 </r>
       <r>   12.3044    0.0000 </r>
       <r>   12.3353    0.0000 </r>
       <r>   14.1770    0.0000 </r>
      </set>
      <set comment="kpoint 9">
       <r>   -7.9186    1.0000 </r>
       <r>   -7.9162    1.0000 </r>
       <r>   -0.4379    1.0000 </r>
       <r>   -0.4345    1.0000 </r>
       <r>    1.9997    1.0000 </r>
       <r>    2.0222    1.0000 </r>
       <r>    2.1932    1.0000 </r>
       <r>    2.1971    1.0000 </r>
       <r>    5.5984    0.0000 </r>
       <r>    5.5991    0.0000 </r>
       <r>    6.6176    0.0000 </r>
       <r>    6.6578    0.0000 </r>
       <r>    8.5965    0.0000 </r>
       <r>    8.6227    0.0000 </r>
       <r>    8.8356    0.0000 </r>
       <r>    8.8501    0.0000 </r>
       <r>   10.7396    0.0000 </r>
       <r>   10.7468    0.0000 </r>
       <r>   12.9237    0.0000 </r>
       <r>   13.0138    0.0000 </r>
       <r>   13.4270    0.0000 </r>
      </set>
      <set comment="kpoint 10">
       <r>   -7.3871    1.0000 </r>
       <r>   -7.3795    1.0000 </r>
       <r>   -1.8864    1.0000 </r>
       <r>   -1.8693    1.0000 </r>
       <r>    1.4348    1.0000 </r>
       <r>    1.4554    1.0000 </r>
       <r>    1.9569    1.0000 </r>
       <r>    1.9588    1.0000 </r>
       <r>    5.4006    0.0000 </r>
       <r>    5.4070    0.0000 </r>
       <r>    7.4089    0.0000 </r>
       <r>    7.4358    0.0000 </r>
       <r>    8.7878    0.0000 </r>
       <r>    8.7899    0.0000 </r>
       <r>    9.2151    0.0000 </r>
       <r>    9.2768    0.0000 </r>
       <r>   11.9379    0.0000 </r>
       <r>   12.0023    0.0000 </r>
       <r>   13.1574    0.0000 </r>
       <r>   13.7035    0.0000 </r>
       <r>   14.1877    0.0000 </r>
      </set>
      <set comment="kpoint 11">
       <r>   -7.1768    1.0000 </r>
       <r>   -7.1657    1.0000 </r>
       <r>   -2.3451    1.0000 </r>
       <r>   -2.3205    1.0000 </r>
       <r>    1.1169    1.0000 </r>
       <r>    1.1300    1.0000 </r>
       <r>    2.0782    1.0000 </r>
       <r>    2.0832    1.0000 </r>
       <r>    5.3356    0.0000 </r>
       <r>    5.3380    0.0000 </r>
       <r>    7.5961    0.0000 </r>
       <r>    7.6215    0.0000 </r>
       <r>    8.5110    0.0000 </r>
       <r>    8.5119    0.0000 </r>
       <r>   10.2893    0.0000 </r>
       <r>   10.3237    0.0000 </r>
       <r>   12.2004    0.0000 </r>
       <r>   12.3598    0.0000 </r>
       <r>   13.0703    0.0000 </r>
       <r>   13.1618    0.0000 </r>
       <r>   13.2066    0.0000 </r>
      </set>
      <set comment="kpoint 12">
       <r>   -7.5651    1.0000 </r>
       <r>   -7.5582    1.0000 </r>
       <r>   -1.4657    1.0000 </r>
       <r>   -1.4471    1.0000 </r>
       <r>    1.2123    1.0000 </r>
       <r>    1.2232    1.0000 </r>
       <r>    2.4823    1.0000 </r>
       <r>    2.4909    1.0000 </r>
       <r>    5.4312    0.0000 </r>
       <r>    5.4459    0.0000 </r>
       <r>    7.8638    0.0000 </r>
       <r>    7.8809    0.0000 </r>
       <r>    8.2347    0.0000 </r>
       <r>    8.2382    0.0000 </r>
       <r>    8.9732    0.0000 </r>
       <r>    8.9832    0.0000 </r>
       <r>   11.3544    0.0000 </r>
       <r>   11.3823    0.0000 </r>
       <r>   12.5073    0.0000 </r>
       <r>   12.5645    0.0000 </r>
       <r>   13.9667    0.0000 </r>
      </set>
      <set comment="kpoint 13">
       <r>   -8.0808    1.0000 </r>
       <r>   -8.0786    1.0000 </r>
       <r>    0.0171    1.0000 </r>
       <r>    0.0210    1.0000 </r>
       <r>    1.8908    1.0000 </r>
       <r>    1.9089    1.0000 </r>
       <r>    2.9432    1.0000 </r>
       <r>    2.9544    1.0000 </r>
       <r>    5.2614    0.0000 </r>
       <r>    5.2779    0.0000 </r>
       <r>    7.2784    0.0000 </r>
       <r>    7.4226    0.0000 </r>
       <r>    7.7105    0.0000 </r>
       <r>    7.7487    0.0000 </r>
       <r>    8.4088    0.0000 </r>
       <r>    8.4967    0.0000 </r>
       <r>   10.9995    0.0000 </r>
       <r>   11.0328    0.0000 </r>
       <r>   12.0119    0.0000 </r>
       <r>   12.1219    0.0000 </r>
       <r>   12.9599    0.0000 </r>
      </set>
      <set comment="kpoint 14">
       <r>   -7.6500    1.0000 </r>
       <r>   -7.6500    1.0000 </r>
       <r>   -0.8822    1.0000 </r>
       <r>   -0.8822    1.0000 </r>
       <r>    1.5938    1.0000 </r>
       <r>    1.5938    1.0000 </r>
       <r>    1.6592    1.0000 </r>
       <r>    1.6592    1.0000 </r>
       <r>    5.3578    0.0000 </r>
       <r>    5.3578    0.0000 </r>
       <r>    6.0442    0.0000 </r>
       <r>    6.0442    0.0000 </r>
       <r>    9.9418    0.0000 </r>
       <r>    9.9420    0.0000 </r>
       <r>   10.0937    0.0000 </r>
       <r>   10.0937    0.0000 </r>
       <r>   10.2036    0.0000 </r>
       <r>   10.2037    0.0000 </r>
       <r>   13.6357    0.0000 </r>
       <r>   13.6543    0.0000 </r>
       <r>   15.1414    0.0000 </r>
      </set>
      <set comment="kpoint 15">
       <r>   -7.2024    1.0000 </r>
       <r>   -7.1940    1.0000 </r>
       <r>   -1.8218    1.0000 </r>
       <r>   -1.8031    1.0000 </r>
       <r>    0.8862    1.0000 </r>
       <r>    0.9048    1.0000 </r>
       <r>    1.3812    1.0000 </r>
       <r>    1.3816    1.0000 </r>
       <r>    5.4167    0.0000 </r>
       <r>    5.4413    0.0000 </r>
       <r>    6.4025    0.0000 </r>
       <r>    6.4247    0.0000 </r>
       <r>    9.5591    0.0000 </r>
       <r>    9.6258    0.0000 </r>
       <r>   10.4528    0.0000 </r>
       <r>   10.4714    0.0000 </r>
       <r>   12.2512    0.0000 </r>
       <r>   12.2532    0.0000 </r>
       <r>   14.4313    0.0000 </r>
       <r>   14.7626    0.0000 </r>
       <r>   15.5711    0.0000 </r>
      </set>
      <set comment="kpoint 16">
       <r>   -6.9146    1.0000 </r>
       <r>   -6.8957    1.0000 </r>
       <r>   -2.3185    1.0000 </r>
       <r>   -2.2733    1.0000 </r>
       <r>    0.1550    1.0000 </r>
       <r>    0.1610    1.0000 </r>
       <r>    1.5027    1.0000 </r>
       <r>    1.5057    1.0000 </r>
       <r>    5.5473    0.0000 </r>
       <r>    5.5500    0.0000 </r>
       <r>    7.8491    0.0000 </r>
       <r>    7.9378    0.0000 </r>
       <r>    9.5426    0.0000 </r>
       <r>    9.7118    0.0000 </r>
       <r>   10.0233    0.0000 </r>
       <r>   10.0442    0.0000 </r>
       <r>   11.5521    0.0000 </r>
       <r>   11.6834    0.0000 </r>
       <r>   13.2258    0.0000 </r>
       <r>   13.2588    0.0000 </r>
       <r>   15.4380    0.0000 </r>
      </set>
      <set comment="kpoint 17">
       <r>   -7.1190    1.0000 </r>
       <r>   -7.1025    1.0000 </r>
       <r>   -2.0191    1.0000 </r>
       <r>   -1.9725    1.0000 </r>
       <r>    0.1352    1.0000 </r>
       <r>    0.1366    1.0000 </r>
       <r>    1.9508    1.0000 </r>
       <r>    1.9568    1.0000 </r>
       <r>    5.8247    0.0000 </r>
       <r>    5.8496    0.0000 </r>
       <r>    8.2922    0.0000 </r>
       <r>    8.4166    0.0000 </r>
       <r>    9.0924    0.0000 </r>
       <r>    9.2190    0.0000 </r>
       <r>    9.2497    0.0000 </r>
       <r>    9.3039    0.0000 </r>
       <r>   11.6683    0.0000 </r>
       <r>   11.6912    0.0000 </r>
       <r>   11.8000    0.0000 </r>
       <r>   11.9423    0.0000 </r>
       <r>   15.5447    0.0000 </r>
      </set>
      <set comment="kpoint 18">
       <r>   -7.5651    1.0000 </r>
       <r>   -7.5582    1.0000 </r>
       <r>   -1.4657    1.0000 </r>
       <r>   -1.4471    1.0000 </r>
       <r>    1.2123    1.0000 </r>
       <r>    1.2232    1.0000 </r>
       <r>    2.4823    1.0000 </r>
       <r>    2.4909    1.0000 </r>
       <r>    5.4312    0.0000 </r>
       <r>    5.4459    0.0000 </r>
       <r>    7.8645    0.0000 </r>
       <r>    7.8803    0.0000 </r>
       <r>    8.2349    0.0000 </r>
       <r>    8.2380    0.0000 </r>
       <r>    8.9724    0.0000 </r>
       <r>    8.9841    0.0000 </r>
       <r>   11.3535    0.0000 </r>
       <r>   11.3834    0.0000 </r>
       <r>   12.5301    0.0000 </r>
       <r>   12.5449    0.0000 </r>
       <r>   13.9661    0.0000 </r>
      </set>
      <set comment="kpoint 19">
       <r>   -6.9101    1.0000 </r>
       <r>   -6.9101    1.0000 </r>
       <r>   -2.2893    1.0000 </r>
       <r>   -2.2893    1.0000 </r>
       <r>    1.0327    1.0000 </r>
       <r>    1.0327    1.0000 </r>
       <r>    1.0532    1.0000 </r>
       <r>    1.0532    1.0000 </r>
       <r>    4.8854    0.0000 </r>
       <r>    4.8854    0.0000 </r>
       <r>    5.4787    0.0000 </r>
       <r>    5.4787    0.0000 </r>
       <r>   11.8327    0.0000 </r>
       <r>   11.8344    0.0000 </r>
       <r>   11.9871    0.0000 </r>
       <r>   11.9962    0.0000 </r>
       <r>   12.1197    0.0000 </r>
       <r>   12.1257    0.0000 </r>
       <r>   14.5311    0.0000 </r>
       <r>   14.6465    0.0000 </r>
       <r>   15.7367    0.0000 </r>
      </set>
      <set comment="kpoint 20">
       <r>   -6.7710    1.0000 </r>
       <r>   -6.7568    1.0000 </r>
       <r>   -2.4782    1.0000 </r>
       <r>   -2.4487    1.0000 </r>
       <r>    0.4548    1.0000 </r>
       <r>    0.4682    1.0000 </r>
       <r>    1.0930    1.0000 </r>
       <r>    1.0936    1.0000 </r>
       <r>    5.1384    0.0000 </r>
       <r>    5.1620    0.0000 </r>
       <r>    6.1607    0.0000 </r>
       <r>    6.1804    0.0000 </r>
       <r>   11.3206    0.0000 </r>
       <r>   11.3230    0.0000 </r>
       <r>   11.6451    0.0000 </r>
       <r>   11.6899    0.0000 </r>
       <r>   11.9540    0.0000 </r>
       <r>   12.1942    0.0000 </r>
       <r>   14.1046    0.0000 </r>
       <r>   14.1275    0.0000 </r>
       <r>   15.8440    0.0000 </r>
      </set>
      <set comment="kpoint 21">
       <r>   -6.9146    1.0000 </r>
       <r>   -6.8957    1.0000 </r>
       <r>   -2.3185    1.0000 </r>
       <r>   -2.2733    1.0000 </r>
       <r>    0.1550    1.0000 </r>
       <r>    0.1610    1.0000 </r>
       <r>    1.5027    1.0000 </r>
       <r>    1.5057    1.0000 </r>
       <r>    5.5474    0.0000 </r>
       <r>    5.5499    0.0000 </r>
       <r>    7.8491    0.0000 </r>
       <r>    7.9378    0.0000 </r>
       <r>    9.5426    0.0000 </r>
       <r>    9.7123    0.0000 </r>
       <r>   10.0279    0.0000 </r>
       <r>   10.0394    0.0000 </r>
       <r>   11.5574    0.0000 </r>
       <r>   11.6784    0.0000 </r>
       <r>   13.2273    0.0000 </r>
       <r>   13.2571    0.0000 </r>
       <r>   15.2076    0.0000 </r>
      </set>
      <set comment="kpoint 22">
       <r>   -7.1768    1.0000 </r>
       <r>   -7.1657    1.0000 </r>
       <r>   -2.3451    1.0000 </r>
       <r>   -2.3205    1.0000 </r>
       <r>    1.1169    1.0000 </r>
       <r>    1.1300    1.0000 </r>
       <r>    2.0782    1.0000 </r>
       <r>    2.0832    1.0000 </r>
       <r>    5.3357    0.0000 </r>
       <r>    5.3379    0.0000 </r>
       <r>    7.5961    0.0000 </r>
       <r>    7.6215    0.0000 </r>
       <r>    8.5114    0.0000 </r>
       <r>    8.5115    0.0000 </r>
       <r>   10.2865    0.0000 </r>
       <r>   10.3258    0.0000 </r>
       <r>   12.2010    0.0000 </r>
       <r>   12.3423    0.0000 </r>
       <r>   13.0508    0.0000 </r>
       <r>   13.1724    0.0000 </r>
       <r>   13.1794    0.0000 </r>
      </set>
      <set comment="kpoint 23">
       <r>   -7.2024    1.0000 </r>
       <r>   -7.1940    1.0000 </r>
       <r>   -1.8218    1.0000 </r>
       <r>   -1.8031    1.0000 </r>
       <r>    0.8862    1.0000 </r>
       <r>    0.9048    1.0000 </r>
       <r>    1.3812    1.0000 </r>
       <r>    1.3816    1.0000 </r>
       <r>    5.4167    0.0000 </r>
       <r>    5.4413    0.0000 </r>
       <r>    6.4025    0.0000 </r>
       <r>    6.4247    0.0000 </r>
       <r>    9.5590    0.0000 </r>
       <r>    9.6260    0.0000 </r>
       <r>   10.4531    0.0000 </r>
       <r>   10.4714    0.0000 </r>
       <r>   12.2362    0.0000 </r>
       <r>   12.2686    0.0000 </r>
       <r>   14.4721    0.0000 </r>
       <r>   15.1762    0.0000 </r>
       <r>   15.5560    0.0000 </r>
      </set>
      <set comment="kpoint 24">
       <r>   -7.3871    1.0000 </r>
       <r>   -7.3795    1.0000 </r>
       <r>   -1.8864    1.0000 </r>
       <r>   -1.8693    1.0000 </r>
       <r>    1.4348    1.0000 </r>
       <r>    1.4554    1.0000 </r>
       <r>    1.9569    1.0000 </r>
       <r>    1.9588    1.0000 </r>
       <r>    5.4006    0.0000 </r>
       <r>    5.4070    0.0000 </r>
       <r>    7.4090    0.0000 </r>
       <r>    7.4358    0.0000 </r>
       <r>    8.7869    0.0000 </r>
       <r>    8.7910    0.0000 </r>
       <r>    9.2154    0.0000 </r>
       <r>    9.2762    0.0000 </r>
       <r>   11.9332    0.0000 </r>
       <r>   11.9883    0.0000 </r>
       <r>   13.1550    0.0000 </r>
       <r>   13.1580    0.0000 </r>
       <r>   14.0855    0.0000 </r>
      </set>
      <set comment="kpoint 25">
       <r>   -7.9186    1.0000 </r>
       <r>   -7.9162    1.0000 </r>
       <r>   -0.4379    1.0000 </r>
       <r>   -0.4345    1.0000 </r>
       <r>    1.9997    1.0000 </r>
       <r>    2.0222    1.0000 </r>
       <r>    2.1932    1.0000 </r>
       <r>    2.1971    1.0000 </r>
       <r>    5.5983    0.0000 </r>
       <r>    5.5992    0.0000 </r>
       <r>    6.6176    0.0000 </r>
       <r>    6.6578    0.0000 </r>
       <r>    8.5967    0.0000 </r>
       <r>    8.6226    0.0000 </r>
       <r>    8.8364    0.0000 </r>
       <r>    8.8493    0.0000 </r>
       <r>   10.7421    0.0000 </r>
       <r>   10.7448    0.0000 </r>
       <r>   12.9122    0.0000 </r>
       <r>   13.0324    0.0000 </r>
       <r>   13.4407    0.0000 </r>
      </set>
      <set comment="kpoint 26">
       <r>   -7.4944    1.0000 </r>
       <r>   -7.4867    1.0000 </r>
       <r>   -1.3402    1.0000 </r>
       <r>   -1.3194    1.0000 </r>
       <r>    0.9422    1.0000 </r>
       <r>    0.9503    1.0000 </r>
       <r>    1.9068    1.0000 </r>
       <r>    1.9309    1.0000 </r>
       <r>    6.2889    0.0000 </r>
       <r>    6.3573    0.0000 </r>
       <r>    6.5809    0.0000 </r>
       <r>    6.6837    0.0000 </r>
       <r>    8.2506    0.0000 </r>
       <r>    8.3586    0.0000 </r>
       <r>    9.7431    0.0000 </r>
       <r>    9.8777    0.0000 </r>
       <r>   11.2456    0.0000 </r>
       <r>   11.2905    0.0000 </r>
       <r>   13.9982    0.0000 </r>
       <r>   14.4754    0.0000 </r>
       <r>   14.8529    0.0000 </r>
      </set>
      <set comment="kpoint 27">
       <r>   -7.0565    1.0000 </r>
       <r>   -7.0401    1.0000 </r>
       <r>   -2.1671    1.0000 </r>
       <r>   -2.1269    1.0000 </r>
       <r>    0.4094    1.0000 </r>
       <r>    0.4156    1.0000 </r>
       <r>    1.5102    1.0000 </r>
       <r>    1.5357    1.0000 </r>
       <r>    6.3381    0.0000 </r>
       <r>    6.3606    0.0000 </r>
       <r>    7.3152    0.0000 </r>
       <r>    7.3822    0.0000 </r>
       <r>    8.5959    0.0000 </r>
       <r>    8.7137    0.0000 </r>
       <r>   10.2521    0.0000 </r>
       <r>   10.4099    0.0000 </r>
       <r>   11.4652    0.0000 </r>
       <r>   11.5908    0.0000 </r>
       <r>   13.3932    0.0000 </r>
       <r>   13.6219    0.0000 </r>
       <r>   14.5641    0.0000 </r>
      </set>
      <set comment="kpoint 28">
       <r>   -7.0565    1.0000 </r>
       <r>   -7.0401    1.0000 </r>
       <r>   -2.1671    1.0000 </r>
       <r>   -2.1269    1.0000 </r>
       <r>    0.4094    1.0000 </r>
       <r>    0.4156    1.0000 </r>
       <r>    1.5102    1.0000 </r>
       <r>    1.5357    1.0000 </r>
       <r>    6.3383    0.0000 </r>
       <r>    6.3604    0.0000 </r>
       <r>    7.3152    0.0000 </r>
       <r>    7.3822    0.0000 </r>
       <r>    8.5959    0.0000 </r>
       <r>    8.7137    0.0000 </r>
       <r>   10.2519    0.0000 </r>
       <r>   10.4101    0.0000 </r>
       <r>   11.4706    0.0000 </r>
       <r>   11.5859    0.0000 </r>
       <r>   13.4477    0.0000 </r>
       <r>   13.7485    0.0000 </r>
       <r>   14.6279    0.0000 </r>
      </set>
      <set comment="kpoint 29">
       <r>   -6.8707    1.0000 </r>
       <r>   -6.8539    1.0000 </r>
       <r>   -2.2950    1.0000 </r>
       <r>   -2.2577    1.0000 </r>
       <r>    0.5106    1.0000 </r>
       <r>    0.5153    1.0000 </r>
       <r>    0.8489    1.0000 </r>
       <r>    0.8786    1.0000 </r>
       <r>    6.0414    0.0000 </r>
       <r>    6.1197    0.0000 </r>
       <r>    6.4325    0.0000 </r>
       <r>    6.5100    0.0000 </r>
       <r>    9.3608    0.0000 </r>
       <r>    9.4865    0.0000 </r>
       <r>   11.2633    0.0000 </r>
       <r>   11.3641    0.0000 </r>
       <r>   12.2370    0.0000 </r>
       <r>   12.3560    0.0000 </r>
       <r>   14.2163    0.0000 </r>
       <r>   14.3709    0.0000 </r>
       <r>   15.9002    0.0000 </r>
      </set>
      <set comment="kpoint 30">
       <r>   -6.7989    1.0000 </r>
       <r>   -6.7759    1.0000 </r>
       <r>   -2.3584    1.0000 </r>
       <r>   -2.3035    1.0000 </r>
       <r>    0.0617    1.0000 </r>
       <r>    0.0689    1.0000 </r>
       <r>    0.9233    1.0000 </r>
       <r>    0.9504    1.0000 </r>
       <r>    6.4863    0.0000 </r>
       <r>    6.4905    0.0000 </r>
       <r>    7.8601    0.0000 </r>
       <r>    7.9631    0.0000 </r>
       <r>    8.7313    0.0000 </r>
       <r>    8.8844    0.0000 </r>
       <r>    9.7876    0.0000 </r>
       <r>    9.8663    0.0000 </r>
       <r>   12.0526    0.0000 </r>
       <r>   12.2046    0.0000 </r>
       <r>   13.6643    0.0000 </r>
       <r>   13.7057    0.0000 </r>
       <r>   16.0712    0.0000 </r>
      </set>
     </set>
    </set>
   </array>
  </eigenvalues>
  <separator name="orbital magnetization" >
   <v name="MAGDIPOLOUT">      0.00000000      0.00000000      0.00000000</v>
  </separator>
  <dos>
   <i name="efermi">      3.38043413 </i>
   <total>
    <array>
     <dimension dim="1">gridpoints</dimension>
     <dimension dim="2">spin</dimension>
     <field>energy</field>
     <field>total</field>
     <field>integrated</field>
     <set>
      <set comment="spin 1">
       <r>    -9.7710     0.0000     0.0000 </r>
       <r>    -9.6808     0.0000     0.0000 </r>
       <r>    -9.5905     0.0000     0.0000 </r>
       <r>    -9.5003     0.0000     0.0000 </r>
       <r>    -9.4101     0.0000     0.0000 </r>
       <r>    -9.3198     0.0000     0.0000 </r>
       <r>    -9.2296     0.0000     0.0000 </r>
       <r>    -9.1393     0.0000     0.0000 </r>
       <r>    -9.0491     0.0000     0.0000 </r>
       <r>    -8.9588    -0.0000    -0.0000 </r>
       <r>    -8.8686    -0.0000    -0.0000 </r>
       <r>    -8.7784    -0.0000    -0.0000 </r>
       <r>    -8.6881    -0.0000    -0.0000 </r>
       <r>    -8.5979    -0.0022    -0.0002 </r>
       <r>    -8.5076     0.0631     0.0055 </r>
       <r>    -8.4174    -0.0143     0.0042 </r>
       <r>    -8.3271     0.5601     0.0547 </r>
       <r>    -8.2369     0.3767     0.0887 </r>
       <r>    -8.1467    -0.0402     0.0851 </r>
       <r>    -8.0564     0.6847     0.1469 </r>
       <r>    -7.9662     0.0744     0.1536 </r>
       <r>    -7.8759     1.9061     0.3256 </r>
       <r>    -7.7857     0.2097     0.3445 </r>
       <r>    -7.6954    -0.0117     0.3435 </r>
       <r>    -7.6052     0.3867     0.3784 </r>
       <r>    -7.5150     1.7959     0.5405 </r>
       <r>    -7.4247     1.3562     0.6628 </r>
       <r>    -7.3345     2.0236     0.8455 </r>
       <r>    -7.2442    -0.0629     0.8398 </r>
       <r>    -7.1540     2.8000     1.0925 </r>
       <r>    -7.0637     1.9667     1.2699 </r>
       <r>    -6.9735     2.2923     1.4768 </r>
       <r>    -6.8833     1.8700     1.6456 </r>
       <r>    -6.7930     2.3735     1.8598 </r>
       <r>    -6.7028     1.6098     2.0050 </r>
       <r>    -6.6125    -0.0556     2.0000 </r>
       <r>    -6.5223    -0.0001     2.0000 </r>
       <r>    -6.4320    -0.0000     2.0000 </r>
       <r>    -6.3418     0.0000     2.0000 </r>
       <r>    -6.2516     0.0000     2.0000 </r>
       <r>    -6.1613     0.0000     2.0000 </r>
       <r>    -6.0711     0.0000     2.0000 </r>
       <r>    -5.9808     0.0000     2.0000 </r>
       <r>    -5.8906     0.0000     2.0000 </r>
       <r>    -5.8003     0.0000     2.0000 </r>
       <r>    -5.7101     0.0000     2.0000 </r>
       <r>    -5.6199     0.0000     2.0000 </r>
       <r>    -5.5296     0.0000     2.0000 </r>
       <r>    -5.4394     0.0000     2.0000 </r>
       <r>    -5.3491     0.0000     2.0000 </r>
       <r>    -5.2589     0.0000     2.0000 </r>
       <r>    -5.1686     0.0000     2.0000 </r>
       <r>    -5.0784     0.0000     2.0000 </r>
       <r>    -4.9882     0.0000     2.0000 </r>
       <r>    -4.8979     0.0000     2.0000 </r>
       <r>    -4.8077     0.0000     2.0000 </r>
       <r>    -4.7174     0.0000     2.0000 </r>
       <r>    -4.6272     0.0000     2.0000 </r>
       <r>    -4.5369     0.0000     2.0000 </r>
       <r>    -4.4467     0.0000     2.0000 </r>
       <r>    -4.3565     0.0000     2.0000 </r>
       <r>    -4.2662     0.0000     2.0000 </r>
       <r>    -4.1760     0.0000     2.0000 </r>
       <r>    -4.0857     0.0000     2.0000 </r>
       <r>    -3.9955     0.0000     2.0000 </r>
       <r>    -3.9053     0.0000     2.0000 </r>
       <r>    -3.8150     0.0000     2.0000 </r>
       <r>    -3.7248     0.0000     2.0000 </r>
       <r>    -3.6345     0.0000     2.0000 </r>
       <r>    -3.5443     0.0000     2.0000 </r>
       <r>    -3.4540     0.0000     2.0000 </r>
       <r>    -3.3638     0.0000     2.0000 </r>
       <r>    -3.2736     0.0000     2.0000 </r>
       <r>    -3.1833     0.0000     2.0000 </r>
       <r>    -3.0931     0.0000     2.0000 </r>
       <r>    -3.0028     0.0000     2.0000 </r>
       <r>    -2.9126    -0.0000     2.0000 </r>
       <r>    -2.8223    -0.0000     2.0000 </r>
       <r>    -2.7321    -0.0000     2.0000 </r>
       <r>    -2.6419    -0.0000     2.0000 </r>
       <r>    -2.5516    -0.0138     1.9988 </r>
       <r>    -2.4614     0.4176     2.0364 </r>
       <r>    -2.3711     0.5941     2.0901 </r>
       <r>    -2.2809     4.7598     2.5196 </r>
       <r>    -2.1906     2.3562     2.7322 </r>
       <r>    -2.1004     2.7375     2.9793 </r>
       <r>    -2.0102     0.3956     3.0150 </r>
       <r>    -1.9199     0.5376     3.0635 </r>
       <r>    -1.8297     1.9161     3.2364 </r>
       <r>    -1.7394     1.2045     3.3451 </r>
       <r>    -1.6492    -0.0441     3.3411 </r>
       <r>    -1.5589    -0.0121     3.3400 </r>
       <r>    -1.4687     0.4912     3.3843 </r>
       <r>    -1.3785     1.0978     3.4834 </r>
       <r>    -1.2882     1.4928     3.6181 </r>
       <r>    -1.1980     0.0332     3.6211 </r>
       <r>    -1.1077    -0.0014     3.6210 </r>
       <r>    -1.0175    -0.0005     3.6209 </r>
       <r>    -0.9272    -0.0027     3.6207 </r>
       <r>    -0.8370     0.9239     3.7041 </r>
       <r>    -0.7468    -0.0158     3.7027 </r>
       <r>    -0.6565    -0.0003     3.7026 </r>
       <r>    -0.5663    -0.0011     3.7025 </r>
       <r>    -0.4760     0.0189     3.7042 </r>
       <r>    -0.3858     1.5728     3.8462 </r>
       <r>    -0.2955    -0.0394     3.8426 </r>
       <r>    -0.2053    -0.0004     3.8426 </r>
       <r>    -0.1151    -0.0004     3.8425 </r>
       <r>    -0.0248    -0.0272     3.8401 </r>
       <r>     0.0654     1.5498     3.9799 </r>
       <r>     0.1557     2.1673     4.1755 </r>
       <r>     0.2459     0.9908     4.2649 </r>
       <r>     0.3362    -0.1110     4.2549 </r>
       <r>     0.4264     2.3403     4.4661 </r>
       <r>     0.5166     2.5331     4.6947 </r>
       <r>     0.6069     0.6552     4.7538 </r>
       <r>     0.6971    -0.0183     4.7522 </r>
       <r>     0.7874    -0.0467     4.7480 </r>
       <r>     0.8776     1.4014     4.8744 </r>
       <r>     0.9679     4.4441     5.2755 </r>
       <r>     1.0581     1.1677     5.3809 </r>
       <r>     1.1483     2.9721     5.6491 </r>
       <r>     1.2386     1.5400     5.7880 </r>
       <r>     1.3288     0.2362     5.8094 </r>
       <r>     1.4191     1.7236     5.9649 </r>
       <r>     1.5093     3.3015     6.2628 </r>
       <r>     1.5996     3.0855     6.5413 </r>
       <r>     1.6898     0.4382     6.5808 </r>
       <r>     1.7800     0.0230     6.5829 </r>
       <r>     1.8703     0.0339     6.5860 </r>
       <r>     1.9605     3.5781     6.9089 </r>
       <r>     2.0508     2.6966     7.1522 </r>
       <r>     2.1410     1.4381     7.2820 </r>
       <r>     2.2313     2.0088     7.4633 </r>
       <r>     2.3215     0.0692     7.4695 </r>
       <r>     2.4117    -0.0466     7.4653 </r>
       <r>     2.5020     2.2246     7.6661 </r>
       <r>     2.5922     0.8090     7.7391 </r>
       <r>     2.6825     0.1882     7.7561 </r>
       <r>     2.7727     0.7197     7.8210 </r>
       <r>     2.8630    -0.0234     7.8189 </r>
       <r>     2.9532     0.9778     7.9071 </r>
       <r>     3.0434     0.3697     7.9405 </r>
       <r>     3.1337     0.2564     7.9636 </r>
       <r>     3.2239     0.3499     7.9952 </r>
       <r>     3.3142    -0.0159     7.9938 </r>
       <r>     3.4044     0.1154     8.0042 </r>
       <r>     3.4947     0.0186     8.0059 </r>
       <r>     3.5849    -0.0004     8.0058 </r>
       <r>     3.6751    -0.0000     8.0058 </r>
       <r>     3.7654    -0.0000     8.0058 </r>
       <r>     3.8556    -0.0000     8.0058 </r>
       <r>     3.9459    -0.0000     8.0058 </r>
       <r>     4.0361    -0.0000     8.0058 </r>
       <r>     4.1264    -0.0000     8.0058 </r>
       <r>     4.2166    -0.0179     8.0042 </r>
       <r>     4.3068     0.4695     8.0466 </r>
       <r>     4.3971     0.0408     8.0503 </r>
       <r>     4.4873     0.7469     8.1177 </r>
       <r>     4.5776     0.3191     8.1465 </r>
       <r>     4.6678    -0.0076     8.1458 </r>
       <r>     4.7581    -0.0004     8.1457 </r>
       <r>     4.8483     0.0106     8.1467 </r>
       <r>     4.9385     0.3892     8.1818 </r>
       <r>     5.0288    -0.0136     8.1806 </r>
       <r>     5.1190     0.0759     8.1875 </r>
       <r>     5.2093     0.7335     8.2536 </r>
       <r>     5.2995     1.0849     8.3516 </r>
       <r>     5.3898     2.4659     8.5741 </r>
       <r>     5.4800     4.3565     8.9672 </r>
       <r>     5.5702     1.6414     9.1154 </r>
       <r>     5.6605     1.7220     9.2708 </r>
       <r>     5.7507    -0.0746     9.2640 </r>
       <r>     5.8410     0.4472     9.3044 </r>
       <r>     5.9312     0.3485     9.3358 </r>
       <r>     6.0215     0.1949     9.3534 </r>
       <r>     6.1117     1.2624     9.4673 </r>
       <r>     6.2019     1.1854     9.5743 </r>
       <r>     6.2922     0.3820     9.6088 </r>
       <r>     6.3824     4.4123    10.0070 </r>
       <r>     6.4727     3.0811    10.2850 </r>
       <r>     6.5629     2.0819    10.4729 </r>
       <r>     6.6532     1.7308    10.6291 </r>
       <r>     6.7434     1.2126    10.7385 </r>
       <r>     6.8336    -0.0440    10.7345 </r>
       <r>     6.9239     0.0519    10.7392 </r>
       <r>     7.0141     0.0149    10.7406 </r>
       <r>     7.1044    -0.0003    10.7405 </r>
       <r>     7.1946    -0.0141    10.7393 </r>
       <r>     7.2849     0.5164    10.7858 </r>
       <r>     7.3751     2.7203    11.0313 </r>
       <r>     7.4653     2.8372    11.2874 </r>
       <r>     7.5556     0.2502    11.3099 </r>
       <r>     7.6458     1.7197    11.4651 </r>
       <r>     7.7361     1.0671    11.5614 </r>
       <r>     7.8263     0.5474    11.6108 </r>
       <r>     7.9166     4.0520    11.9765 </r>
       <r>     8.0068     1.4153    12.1042 </r>
       <r>     8.0970     1.1521    12.2082 </r>
       <r>     8.1873     0.2098    12.2271 </r>
       <r>     8.2775     2.6561    12.4668 </r>
       <r>     8.3678     1.0271    12.5595 </r>
       <r>     8.4580     1.0090    12.6506 </r>
       <r>     8.5483     1.8650    12.8189 </r>
       <r>     8.6385     2.9637    13.0863 </r>
       <r>     8.7287     1.6900    13.2388 </r>
       <r>     8.8190     2.5282    13.4670 </r>
       <r>     8.9092     2.6510    13.7062 </r>
       <r>     8.9995     1.3597    13.8289 </r>
       <r>     9.0897     0.4612    13.8705 </r>
       <r>     9.1799     0.2282    13.8911 </r>
       <r>     9.2702     1.8081    14.0543 </r>
       <r>     9.3604     1.2962    14.1713 </r>
       <r>     9.4507     0.3884    14.2063 </r>
       <r>     9.5409     1.2926    14.3230 </r>
       <r>     9.6312     1.4805    14.4566 </r>
       <r>     9.7214     0.9238    14.5399 </r>
       <r>     9.8116     1.5769    14.6822 </r>
       <r>     9.9019     1.5488    14.8220 </r>
       <r>     9.9921     0.5417    14.8709 </r>
       <r>    10.0824     2.1880    15.0684 </r>
       <r>    10.1726     0.2430    15.0903 </r>
       <r>    10.2629     1.5293    15.2283 </r>
       <r>    10.3531     1.8645    15.3965 </r>
       <r>    10.4433     1.9081    15.5687 </r>
       <r>    10.5336     1.3282    15.6886 </r>
       <r>    10.6238     0.2115    15.7077 </r>
       <r>    10.7141     0.2761    15.7326 </r>
       <r>    10.8043     1.5150    15.8693 </r>
       <r>    10.8946    -0.0398    15.8657 </r>
       <r>    10.9848     0.0960    15.8744 </r>
       <r>    11.0750     0.6920    15.9368 </r>
       <r>    11.1653    -0.0362    15.9336 </r>
       <r>    11.2555     0.8227    16.0078 </r>
       <r>    11.3458     2.7060    16.2520 </r>
       <r>    11.4360     2.0813    16.4398 </r>
       <r>    11.5263     1.7316    16.5961 </r>
       <r>    11.6165     2.2491    16.7991 </r>
       <r>    11.7067     2.2996    17.0066 </r>
       <r>    11.7970     0.7385    17.0732 </r>
       <r>    11.8872     1.6301    17.2203 </r>
       <r>    11.9775     2.7650    17.4699 </r>
       <r>    12.0677     1.9508    17.6459 </r>
       <r>    12.1580     0.8863    17.7259 </r>
       <r>    12.2482     3.2260    18.0170 </r>
       <r>    12.3384     1.8380    18.1829 </r>
       <r>    12.4287     1.2659    18.2971 </r>
       <r>    12.5189     0.5011    18.3423 </r>
       <r>    12.6092     1.2136    18.4519 </r>
       <r>    12.6994     0.0336    18.4549 </r>
       <r>    12.7897     0.0298    18.4576 </r>
       <r>    12.8799     0.0463    18.4618 </r>
       <r>    12.9701     1.0142    18.5533 </r>
       <r>    13.0604     1.2559    18.6666 </r>
       <r>    13.1506     1.1238    18.7680 </r>
       <r>    13.2409     2.8559    19.0258 </r>
       <r>    13.3311     1.1318    19.1279 </r>
       <r>    13.4214     1.2765    19.2431 </r>
       <r>    13.5116     1.4842    19.3770 </r>
       <r>    13.6018     0.0723    19.3836 </r>
       <r>    13.6921     2.0841    19.5716 </r>
       <r>    13.7823     1.6713    19.7225 </r>
       <r>    13.8726    -0.0026    19.7222 </r>
       <r>    13.9628     0.3780    19.7563 </r>
       <r>    14.0531     1.2209    19.8665 </r>
       <r>    14.1433     1.0186    19.9584 </r>
       <r>    14.2335     1.3003    20.0758 </r>
       <r>    14.3238     0.1497    20.0893 </r>
       <r>    14.4140     0.8371    20.1648 </r>
       <r>    14.5043     1.4118    20.2922 </r>
       <r>    14.5945     1.0430    20.3864 </r>
       <r>    14.6848     0.9989    20.4765 </r>
       <r>    14.7750     0.2390    20.4981 </r>
       <r>    14.8652     0.6810    20.5595 </r>
       <r>    14.9555     0.2340    20.5806 </r>
       <r>    15.0457    -0.0075    20.5800 </r>
       <r>    15.1360     0.0731    20.5866 </r>
       <r>    15.2262     0.8312    20.6616 </r>
       <r>    15.3165     0.0684    20.6677 </r>
       <r>    15.4067     0.0253    20.6700 </r>
       <r>    15.4969     0.3425    20.7009 </r>
       <r>    15.5872     1.0615    20.7967 </r>
       <r>    15.6774     0.1163    20.8072 </r>
       <r>    15.7677     0.1732    20.8229 </r>
       <r>    15.8579     0.3057    20.8504 </r>
       <r>    15.9482     0.8989    20.9316 </r>
       <r>    16.0384     0.0269    20.9340 </r>
       <r>    16.1286     0.7582    21.0024 </r>
       <r>    16.2189    -0.0266    21.0000 </r>
       <r>    16.3091    -0.0001    21.0000 </r>
       <r>    16.3994    -0.0000    21.0000 </r>
       <r>    16.4896     0.0000    21.0000 </r>
       <r>    16.5799     0.0000    21.0000 </r>
       <r>    16.6701     0.0000    21.0000 </r>
       <r>    16.7603     0.0000    21.0000 </r>
       <r>    16.8506     0.0000    21.0000 </r>
       <r>    16.9408     0.0000    21.0000 </r>
       <r>    17.0311     0.0000    21.0000 </r>
       <r>    17.1213     0.0000    21.0000 </r>
       <r>    17.2116     0.0000    21.0000 </r>
       <r>    17.3018     0.0000    21.0000 </r>
      </set>
      <set comment="spin 2">
       <r>    -9.7710     0.0000     0.0000 </r>
       <r>    -9.6808     0.0000     0.0000 </r>
       <r>    -9.5905     0.0000     0.0000 </r>
       <r>    -9.5003     0.0000     0.0000 </r>
       <r>    -9.4101     0.0000     0.0000 </r>
       <r>    -9.3198     0.0000     0.0000 </r>
       <r>    -9.2296     0.0000     0.0000 </r>
       <r>    -9.1393     0.0000     0.0000 </r>
       <r>    -9.0491     0.0000     0.0000 </r>
       <r>    -8.9588     0.0000     0.0000 </r>
       <r>    -8.8686     0.0000     0.0000 </r>
       <r>    -8.7784     0.0000     0.0000 </r>
       <r>    -8.6881     0.0000     0.0000 </r>
       <r>    -8.5979     0.0000     0.0000 </r>
       <r>    -8.5076     0.0000     0.0000 </r>
       <r>    -8.4174     0.0000     0.0000 </r>
       <r>    -8.3271     0.0000     0.0000 </r>
       <r>    -8.2369     0.0000     0.0000 </r>
       <r>    -8.1467     0.0000     0.0000 </r>
       <r>    -8.0564     0.0000     0.0000 </r>
       <r>    -7.9662     0.0000     0.0000 </r>
       <r>    -7.8759     0.0000     0.0000 </r>
       <r>    -7.7857     0.0000     0.0000 </r>
       <r>    -7.6954     0.0000     0.0000 </r>
       <r>    -7.6052     0.0000     0.0000 </r>
       <r>    -7.5150     0.0000     0.0000 </r>
       <r>    -7.4247     0.0000     0.0000 </r>
       <r>    -7.3345     0.0000     0.0000 </r>
       <r>    -7.2442     0.0000     0.0000 </r>
       <r>    -7.1540     0.0000     0.0000 </r>
       <r>    -7.0637     0.0000     0.0000 </r>
       <r>    -6.9735     0.0000     0.0000 </r>
       <r>    -6.8833     0.0000     0.0000 </r>
       <r>    -6.7930     0.0000     0.0000 </r>
       <r>    -6.7028     0.0000     0.0000 </r>
       <r>    -6.6125     0.0000     0.0000 </r>
       <r>    -6.5223     0.0000     0.0000 </r>
       <r>    -6.4320     0.0000     0.0000 </r>
       <r>    -6.3418     0.0000     0.0000 </r>
       <r>    -6.2516     0.0000     0.0000 </r>
       <r>    -6.1613     0.0000     0.0000 </r>
       <r>    -6.0711     0.0000     0.0000 </r>
       <r>    -5.9808     0.0000     0.0000 </r>
       <r>    -5.8906     0.0000     0.0000 </r>
       <r>    -5.8003     0.0000     0.0000 </r>
       <r>    -5.7101     0.0000     0.0000 </r>
       <r>    -5.6199     0.0000     0.0000 </r>
       <r>    -5.5296     0.0000     0.0000 </r>
       <r>    -5.4394     0.0000     0.0000 </r>
       <r>    -5.3491     0.0000     0.0000 </r>
       <r>    -5.2589     0.0000     0.0000 </r>
       <r>    -5.1686     0.0000     0.0000 </r>
       <r>    -5.0784     0.0000     0.0000 </r>
       <r>    -4.9882     0.0000     0.0000 </r>
       <r>    -4.8979     0.0000     0.0000 </r>
       <r>    -4.8077     0.0000     0.0000 </r>
       <r>    -4.7174     0.0000     0.0000 </r>
       <r>    -4.6272     0.0000     0.0000 </r>
       <r>    -4.5369     0.0000     0.0000 </r>
       <r>    -4.4467     0.0000     0.0000 </r>
       <r>    -4.3565     0.0000     0.0000 </r>
       <r>    -4.2662     0.0000     0.0000 </r>
       <r>    -4.1760     0.0000     0.0000 </r>
       <r>    -4.0857     0.0000     0.0000 </r>
       <r>    -3.9955     0.0000     0.0000 </r>
       <r>    -3.9053     0.0000     0.0000 </r>
       <r>    -3.8150     0.0000     0.0000 </r>
       <r>    -3.7248     0.0000     0.0000 </r>
       <r>    -3.6345     0.0000     0.0000 </r>
       <r>    -3.5443     0.0000     0.0000 </r>
       <r>    -3.4540     0.0000     0.0000 </r>
       <r>    -3.3638     0.0000     0.0000 </r>
       <r>    -3.2736     0.0000     0.0000 </r>
       <r>    -3.1833     0.0000     0.0000 </r>
       <r>    -3.0931     0.0000     0.0000 </r>
       <r>    -3.0028     0.0000     0.0000 </r>
       <r>    -2.9126     0.0000     0.0000 </r>
       <r>    -2.8223     0.0000     0.0000 </r>
       <r>    -2.7321     0.0000     0.0000 </r>
       <r>    -2.6419     0.0000     0.0000 </r>
       <r>    -2.5516     0.0000     0.0000 </r>
       <r>    -2.4614     0.0000     0.0000 </r>
       <r>    -2.3711     0.0000     0.0000 </r>
       <r>    -2.2809     0.0000     0.0000 </r>
       <r>    -2.1906     0.0000     0.0000 </r>
       <r>    -2.1004     0.0000     0.0000 </r>
       <r>    -2.0102     0.0000     0.0000 </r>
       <r>    -1.9199     0.0000     0.0000 </r>
       <r>    -1.8297     0.0000     0.0000 </r>
       <r>    -1.7394     0.0000     0.0000 </r>
       <r>    -1.6492     0.0000     0.0000 </r>
       <r>    -1.5589     0.0000     0.0000 </r>
       <r>    -1.4687     0.0000     0.0000 </r>
       <r>    -1.3785     0.0000     0.0000 </r>
       <r>    -1.2882     0.0000     0.0000 </r>
       <r>    -1.1980     0.0000     0.0000 </r>
       <r>    -1.1077     0.0000     0.0000 </r>
       <r>    -1.0175     0.0000     0.0000 </r>
       <r>    -0.9272     0.0000     0.0000 </r>
       <r>    -0.8370     0.0000     0.0000 </r>
       <r>    -0.7468     0.0000     0.0000 </r>
       <r>    -0.6565     0.0000     0.0000 </r>
       <r>    -0.5663     0.0000     0.0000 </r>
       <r>    -0.4760     0.0000     0.0000 </r>
       <r>    -0.3858     0.0000     0.0000 </r>
       <r>    -0.2955     0.0000     0.0000 </r>
       <r>    -0.2053     0.0000     0.0000 </r>
       <r>    -0.1151     0.0000     0.0000 </r>
       <r>    -0.0248     0.0000     0.0000 </r>
       <r>     0.0654     0.0000     0.0000 </r>
       <r>     0.1557     0.0000     0.0000 </r>
       <r>     0.2459     0.0000     0.0000 </r>
       <r>     0.3362     0.0000     0.0000 </r>
       <r>     0.4264     0.0000     0.0000 </r>
       <r>     0.5166     0.0000     0.0000 </r>
       <r>     0.6069     0.0000     0.0000 </r>
       <r>     0.6971     0.0000     0.0000 </r>
       <r>     0.7874     0.0000     0.0000 </r>
       <r>     0.8776     0.0000     0.0000 </r>
       <r>     0.9679     0.0000     0.0000 </r>
       <r>     1.0581     0.0000     0.0000 </r>
       <r>     1.1483     0.0000     0.0000 </r>
       <r>     1.2386     0.0000     0.0000 </r>
       <r>     1.3288     0.0000     0.0000 </r>
       <r>     1.4191     0.0000     0.0000 </r>
       <r>     1.5093     0.0000     0.0000 </r>
       <r>     1.5996     0.0000     0.0000 </r>
       <r>     1.6898     0.0000     0.0000 </r>
       <r>     1.7800     0.0000     0.0000 </r>
       <r>     1.8703     0.0000     0.0000 </r>
       <r>     1.9605     0.0000     0.0000 </r>
       <r>     2.0508     0.0000     0.0000 </r>
       <r>     2.1410     0.0000     0.0000 </r>
       <r>     2.2313     0.0000     0.0000 </r>
       <r>     2.3215     0.0000     0.0000 </r>
       <r>     2.4117     0.0000     0.0000 </r>
       <r>     2.5020     0.0000     0.0000 </r>
       <r>     2.5922     0.0000     0.0000 </r>
       <r>     2.6825     0.0000     0.0000 </r>
       <r>     2.7727     0.0000     0.0000 </r>
       <r>     2.8630     0.0000     0.0000 </r>
       <r>     2.9532     0.0000     0.0000 </r>
       <r>     3.0434     0.0000     0.0000 </r>
       <r>     3.1337     0.0000     0.0000 </r>
       <r>     3.2239     0.0000     0.0000 </r>
       <r>     3.3142     0.0000     0.0000 </r>
       <r>     3.4044     0.0000     0.0000 </r>
       <r>     3.4947     0.0000     0.0000 </r>
       <r>     3.5849     0.0000     0.0000 </r>
       <r>     3.6751     0.0000     0.0000 </r>
       <r>     3.7654     0.0000     0.0000 </r>
       <r>     3.8556     0.0000     0.0000 </r>
       <r>     3.9459     0.0000     0.0000 </r>
       <r>     4.0361     0.0000     0.0000 </r>
       <r>     4.1264     0.0000     0.0000 </r>
       <r>     4.2166     0.0000     0.0000 </r>
       <r>     4.3068     0.0000     0.0000 </r>
       <r>     4.3971     0.0000     0.0000 </r>
       <r>     4.4873     0.0000     0.0000 </r>
       <r>     4.5776     0.0000     0.0000 </r>
       <r>     4.6678     0.0000     0.0000 </r>
       <r>     4.7581     0.0000     0.0000 </r>
       <r>     4.8483     0.0000     0.0000 </r>
       <r>     4.9385     0.0000     0.0000 </r>
       <r>     5.0288     0.0000     0.0000 </r>
       <r>     5.1190     0.0000     0.0000 </r>
       <r>     5.2093     0.0000     0.0000 </r>
       <r>     5.2995     0.0000     0.0000 </r>
       <r>     5.3898     0.0000     0.0000 </r>
       <r>     5.4800     0.0000     0.0000 </r>
       <r>     5.5702     0.0000     0.0000 </r>
       <r>     5.6605     0.0000     0.0000 </r>
       <r>     5.7507     0.0000     0.0000 </r>
       <r>     5.8410     0.0000     0.0000 </r>
       <r>     5.9312     0.0000     0.0000 </r>
       <r>     6.0215     0.0000     0.0000 </r>
       <r>     6.1117     0.0000     0.0000 </r>
       <r>     6.2019     0.0000     0.0000 </r>
       <r>     6.2922     0.0000     0.0000 </r>
       <r>     6.3824     0.0000     0.0000 </r>
       <r>     6.4727     0.0000     0.0000 </r>
       <r>     6.5629     0.0000     0.0000 </r>
       <r>     6.6532     0.0000     0.0000 </r>
       <r>     6.7434     0.0000     0.0000 </r>
       <r>     6.8336     0.0000     0.0000 </r>
       <r>     6.9239     0.0000     0.0000 </r>
       <r>     7.0141     0.0000     0.0000 </r>
       <r>     7.1044     0.0000     0.0000 </r>
       <r>     7.1946     0.0000     0.0000 </r>
       <r>     7.2849     0.0000     0.0000 </r>
       <r>     7.3751     0.0000     0.0000 </r>
       <r>     7.4653     0.0000     0.0000 </r>
       <r>     7.5556     0.0000     0.0000 </r>
       <r>     7.6458     0.0000     0.0000 </r>
       <r>     7.7361     0.0000     0.0000 </r>
       <r>     7.8263     0.0000     0.0000 </r>
       <r>     7.9166     0.0000     0.0000 </r>
       <r>     8.0068     0.0000     0.0000 </r>
       <r>     8.0970     0.0000     0.0000 </r>
       <r>     8.1873     0.0000     0.0000 </r>
       <r>     8.2775     0.0000     0.0000 </r>
       <r>     8.3678     0.0000     0.0000 </r>
       <r>     8.4580     0.0000     0.0000 </r>
       <r>     8.5483     0.0000     0.0000 </r>
       <r>     8.6385     0.0000     0.0000 </r>
       <r>     8.7287     0.0000     0.0000 </r>
       <r>     8.8190     0.0000     0.0000 </r>
       <r>     8.9092     0.0000     0.0000 </r>
       <r>     8.9995     0.0000     0.0000 </r>
       <r>     9.0897     0.0000     0.0000 </r>
       <r>     9.1799     0.0000     0.0000 </r>
       <r>     9.2702     0.0000     0.0000 </r>
       <r>     9.3604     0.0000     0.0000 </r>
       <r>     9.4507     0.0000     0.0000 </r>
       <r>     9.5409     0.0000     0.0000 </r>
       <r>     9.6312     0.0000     0.0000 </r>
       <r>     9.7214     0.0000     0.0000 </r>
       <r>     9.8116     0.0000     0.0000 </r>
       <r>     9.9019     0.0000     0.0000 </r>
       <r>     9.9921     0.0000     0.0000 </r>
       <r>    10.0824     0.0000     0.0000 </r>
       <r>    10.1726     0.0000     0.0000 </r>
       <r>    10.2629     0.0000     0.0000 </r>
       <r>    10.3531     0.0000     0.0000 </r>
       <r>    10.4433     0.0000     0.0000 </r>
       <r>    10.5336     0.0000     0.0000 </r>
       <r>    10.6238     0.0000     0.0000 </r>
       <r>    10.7141     0.0000     0.0000 </r>
       <r>    10.8043     0.0000     0.0000 </r>
       <r>    10.8946     0.0000     0.0000 </r>
       <r>    10.9848     0.0000     0.0000 </r>
       <r>    11.0750     0.0000     0.0000 </r>
       <r>    11.1653     0.0000     0.0000 </r>
       <r>    11.2555     0.0000     0.0000 </r>
       <r>    11.3458     0.0000     0.0000 </r>
       <r>    11.4360     0.0000     0.0000 </r>
       <r>    11.5263     0.0000     0.0000 </r>
       <r>    11.6165     0.0000     0.0000 </r>
       <r>    11.7067     0.0000     0.0000 </r>
       <r>    11.7970     0.0000     0.0000 </r>
       <r>    11.8872     0.0000     0.0000 </r>
       <r>    11.9775     0.0000     0.0000 </r>
       <r>    12.0677     0.0000     0.0000 </r>
       <r>    12.1580     0.0000     0.0000 </r>
       <r>    12.2482     0.0000     0.0000 </r>
       <r>    12.3384     0.0000     0.0000 </r>
       <r>    12.4287     0.0000     0.0000 </r>
       <r>    12.5189     0.0000     0.0000 </r>
       <r>    12.6092     0.0000     0.0000 </r>
       <r>    12.6994     0.0000     0.0000 </r>
       <r>    12.7897     0.0000     0.0000 </r>
       <r>    12.8799     0.0000     0.0000 </r>
       <r>    12.9701     0.0000     0.0000 </r>
       <r>    13.0604     0.0000     0.0000 </r>
       <r>    13.1506     0.0000     0.0000 </r>
       <r>    13.2409     0.0000     0.0000 </r>
       <r>    13.3311     0.0000     0.0000 </r>
       <r>    13.4214     0.0000     0.0000 </r>
       <r>    13.5116     0.0000     0.0000 </r>
       <r>    13.6018     0.0000     0.0000 </r>
       <r>    13.6921     0.0000     0.0000 </r>
       <r>    13.7823     0.0000     0.0000 </r>
       <r>    13.8726     0.0000     0.0000 </r>
       <r>    13.9628     0.0000     0.0000 </r>
       <r>    14.0531     0.0000     0.0000 </r>
       <r>    14.1433     0.0000     0.0000 </r>
       <r>    14.2335     0.0000     0.0000 </r>
       <r>    14.3238     0.0000     0.0000 </r>
       <r>    14.4140     0.0000     0.0000 </r>
       <r>    14.5043     0.0000     0.0000 </r>
       <r>    14.5945     0.0000     0.0000 </r>
       <r>    14.6848     0.0000     0.0000 </r>
       <r>    14.7750     0.0000     0.0000 </r>
       <r>    14.8652     0.0000     0.0000 </r>
       <r>    14.9555     0.0000     0.0000 </r>
       <r>    15.0457     0.0000     0.0000 </r>
       <r>    15.1360     0.0000     0.0000 </r>
       <r>    15.2262     0.0000     0.0000 </r>
       <r>    15.3165     0.0000     0.0000 </r>
       <r>    15.4067     0.0000     0.0000 </r>
       <r>    15.4969     0.0000     0.0000 </r>
       <r>    15.5872     0.0000     0.0000 </r>
       <r>    15.6774     0.0000     0.0000 </r>
       <r>    15.7677     0.0000     0.0000 </r>
       <r>    15.8579     0.0000     0.0000 </r>
       <r>    15.9482     0.0000     0.0000 </r>
       <r>    16.0384     0.0000     0.0000 </r>
       <r>    16.1286     0.0000     0.0000 </r>
       <r>    16.2189     0.0000     0.0000 </r>
       <r>    16.3091     0.0000     0.0000 </r>
       <r>    16.3994     0.0000     0.0000 </r>
       <r>    16.4896     0.0000     0.0000 </r>
       <r>    16.5799     0.0000     0.0000 </r>
[...]
       <r>     9.3604     0.0000     0.0000 </r>
       <r>     9.4507     0.0000     0.0000 </r>
       <r>     9.5409     0.0000     0.0000 </r>
       <r>     9.6312     0.0000     0.0000 </r>
       <r>     9.7214     0.0000     0.0000 </r>
       <r>     9.8116     0.0000     0.0000 </r>
       <r>     9.9019     0.0000     0.0000 </r>
       <r>     9.9921     0.0000     0.0000 </r>
       <r>    10.0824     0.0000     0.0000 </r>
       <r>    10.1726     0.0000     0.0000 </r>
       <r>    10.2629     0.0000     0.0000 </r>
       <r>    10.3531     0.0000     0.0000 </r>
       <r>    10.4433     0.0000     0.0000 </r>
       <r>    10.5336     0.0000     0.0000 </r>
       <r>    10.6238     0.0000     0.0000 </r>
       <r>    10.7141     0.0000     0.0000 </r>
       <r>    10.8043     0.0000     0.0000 </r>
       <r>    10.8946     0.0000     0.0000 </r>
       <r>    10.9848     0.0000     0.0000 </r>
       <r>    11.0750     0.0000     0.0000 </r>
       <r>    11.1653     0.0000     0.0000 </r>
       <r>    11.2555     0.0000     0.0000 </r>
       <r>    11.3458     0.0000     0.0000 </r>
       <r>    11.4360     0.0000     0.0000 </r>
       <r>    11.5263     0.0000     0.0000 </r>
       <r>    11.6165     0.0000     0.0000 </r>
       <r>    11.7067     0.0000     0.0000 </r>
       <r>    11.7970     0.0000     0.0000 </r>
       <r>    11.8872     0.0000     0.0000 </r>
       <r>    11.9775     0.0000     0.0000 </r>
       <r>    12.0677     0.0000     0.0000 </r>
       <r>    12.1580     0.0000     0.0000 </r>
       <r>    12.2482     0.0000     0.0000 </r>
       <r>    12.3384     0.0000     0.0000 </r>
       <r>    12.4287     0.0000     0.0000 </r>
       <r>    12.5189     0.0000     0.0000 </r>
       <r>    12.6092     0.0000     0.0000 </r>
       <r>    12.6994     0.0000     0.0000 </r>
       <r>    12.7897     0.0000     0.0000 </r>
       <r>    12.8799     0.0000     0.0000 </r>
       <r>    12.9701     0.0000     0.0000 </r>
       <r>    13.0604     0.0000     0.0000 </r>
       <r>    13.1506     0.0000     0.0000 </r>
       <r>    13.2409     0.0000     0.0000 </r>
       <r>    13.3311     0.0000     0.0000 </r>
       <r>    13.4214     0.0000     0.0000 </r>
       <r>    13.5116     0.0000     0.0000 </r>
       <r>    13.6018     0.0000     0.0000 </r>
       <r>    13.6921     0.0000     0.0000 </r>
       <r>    13.7823     0.0000     0.0000 </r>
       <r>    13.8726     0.0000     0.0000 </r>
       <r>    13.9628     0.0000     0.0000 </r>
       <r>    14.0531     0.0000     0.0000 </r>
       <r>    14.1433     0.0000     0.0000 </r>
       <r>    14.2335     0.0000     0.0000 </r>
       <r>    14.3238     0.0000     0.0000 </r>
       <r>    14.4140     0.0000     0.0000 </r>
       <r>    14.5043     0.0000     0.0000 </r>
       <r>    14.5945     0.0000     0.0000 </r>
       <r>    14.6848     0.0000     0.0000 </r>
       <r>    14.7750     0.0000     0.0000 </r>
       <r>    14.8652     0.0000     0.0000 </r>
       <r>    14.9555     0.0000     0.0000 </r>
       <r>    15.0457     0.0000     0.0000 </r>
       <r>    15.1360     0.0000     0.0000 </r>
       <r>    15.2262     0.0000     0.0000 </r>
       <r>    15.3165     0.0000     0.0000 </r>
       <r>    15.4067     0.0000     0.0000 </r>
       <r>    15.4969     0.0000     0.0000 </r>
       <r>    15.5872     0.0000     0.0000 </r>
       <r>    15.6774     0.0000     0.0000 </r>
       <r>    15.7677     0.0000     0.0000 </r>
       <r>    15.8579     0.0000     0.0000 </r>
       <r>    15.9482     0.0000     0.0000 </r>
       <r>    16.0384     0.0000     0.0000 </r>
       <r>    16.1286     0.0000     0.0000 </r>
       <r>    16.2189     0.0000     0.0000 </r>
       <r>    16.3091     0.0000     0.0000 </r>
       <r>    16.3994     0.0000     0.0000 </r>
       <r>    16.4896     0.0000     0.0000 </r>
       <r>    16.5799     0.0000     0.0000 </r>
       <r>    16.6701     0.0000     0.0000 </r>
       <r>    16.7603     0.0000     0.0000 </r>
       <r>    16.8506     0.0000     0.0000 </r>
       <r>    16.9408     0.0000     0.0000 </r>
       <r>    17.0311     0.0000     0.0000 </r>
       <r>    17.1213     0.0000     0.0000 </r>
       <r>    17.2116     0.0000     0.0000 </r>
       <r>    17.3018     0.0000     0.0000 </r>
      </set>
      <set comment="spin 4">
       <r>    -9.7710     0.0000     0.0000 </r>
       <r>    -9.6808     0.0000     0.0000 </r>
       <r>    -9.5905     0.0000     0.0000 </r>
       <r>    -9.5003     0.0000     0.0000 </r>
       <r>    -9.4101     0.0000     0.0000 </r>
       <r>    -9.3198     0.0000     0.0000 </r>
       <r>    -9.2296     0.0000     0.0000 </r>
       <r>    -9.1393     0.0000     0.0000 </r>
       <r>    -9.0491     0.0000     0.0000 </r>
       <r>    -8.9588     0.0000     0.0000 </r>
       <r>    -8.8686     0.0000     0.0000 </r>
       <r>    -8.7784     0.0000     0.0000 </r>
       <r>    -8.6881     0.0000     0.0000 </r>
       <r>    -8.5979     0.0000     0.0000 </r>
       <r>    -8.5076     0.0000     0.0000 </r>
       <r>    -8.4174     0.0000     0.0000 </r>
       <r>    -8.3271     0.0000     0.0000 </r>
       <r>    -8.2369     0.0000     0.0000 </r>
       <r>    -8.1467     0.0000     0.0000 </r>
       <r>    -8.0564     0.0000     0.0000 </r>
       <r>    -7.9662     0.0000     0.0000 </r>
       <r>    -7.8759     0.0000     0.0000 </r>
       <r>    -7.7857     0.0000     0.0000 </r>
       <r>    -7.6954     0.0000     0.0000 </r>
       <r>    -7.6052     0.0000     0.0000 </r>
       <r>    -7.5150     0.0000     0.0000 </r>
       <r>    -7.4247     0.0000     0.0000 </r>
       <r>    -7.3345     0.0000     0.0000 </r>
       <r>    -7.2442     0.0000     0.0000 </r>
       <r>    -7.1540     0.0000     0.0000 </r>
       <r>    -7.0637     0.0000     0.0000 </r>
       <r>    -6.9735     0.0000     0.0000 </r>
       <r>    -6.8833     0.0000     0.0000 </r>
       <r>    -6.7930     0.0000     0.0000 </r>
       <r>    -6.7028     0.0000     0.0000 </r>
       <r>    -6.6125     0.0000     0.0000 </r>
       <r>    -6.5223     0.0000     0.0000 </r>
       <r>    -6.4320     0.0000     0.0000 </r>
       <r>    -6.3418     0.0000     0.0000 </r>
       <r>    -6.2516     0.0000     0.0000 </r>
       <r>    -6.1613     0.0000     0.0000 </r>
       <r>    -6.0711     0.0000     0.0000 </r>
       <r>    -5.9808     0.0000     0.0000 </r>
       <r>    -5.8906     0.0000     0.0000 </r>
       <r>    -5.8003     0.0000     0.0000 </r>
       <r>    -5.7101     0.0000     0.0000 </r>
       <r>    -5.6199     0.0000     0.0000 </r>
       <r>    -5.5296     0.0000     0.0000 </r>
       <r>    -5.4394     0.0000     0.0000 </r>
       <r>    -5.3491     0.0000     0.0000 </r>
       <r>    -5.2589     0.0000     0.0000 </r>
       <r>    -5.1686     0.0000     0.0000 </r>
       <r>    -5.0784     0.0000     0.0000 </r>
       <r>    -4.9882     0.0000     0.0000 </r>
       <r>    -4.8979     0.0000     0.0000 </r>
       <r>    -4.8077     0.0000     0.0000 </r>
       <r>    -4.7174     0.0000     0.0000 </r>
       <r>    -4.6272     0.0000     0.0000 </r>
       <r>    -4.5369     0.0000     0.0000 </r>
       <r>    -4.4467     0.0000     0.0000 </r>
       <r>    -4.3565     0.0000     0.0000 </r>
       <r>    -4.2662     0.0000     0.0000 </r>
       <r>    -4.1760     0.0000     0.0000 </r>
       <r>    -4.0857     0.0000     0.0000 </r>
       <r>    -3.9955     0.0000     0.0000 </r>
       <r>    -3.9053     0.0000     0.0000 </r>
       <r>    -3.8150     0.0000     0.0000 </r>
       <r>    -3.7248     0.0000     0.0000 </r>
       <r>    -3.6345     0.0000     0.0000 </r>
       <r>    -3.5443     0.0000     0.0000 </r>
       <r>    -3.4540     0.0000     0.0000 </r>
       <r>    -3.3638     0.0000     0.0000 </r>
       <r>    -3.2736     0.0000     0.0000 </r>
       <r>    -3.1833     0.0000     0.0000 </r>
       <r>    -3.0931     0.0000     0.0000 </r>
       <r>    -3.0028     0.0000     0.0000 </r>
       <r>    -2.9126     0.0000     0.0000 </r>
       <r>    -2.8223     0.0000     0.0000 </r>
       <r>    -2.7321     0.0000     0.0000 </r>
       <r>    -2.6419     0.0000     0.0000 </r>
       <r>    -2.5516     0.0000     0.0000 </r>
       <r>    -2.4614     0.0000     0.0000 </r>
       <r>    -2.3711     0.0000     0.0000 </r>
       <r>    -2.2809     0.0000     0.0000 </r>
       <r>    -2.1906     0.0000     0.0000 </r>
       <r>    -2.1004     0.0000     0.0000 </r>
       <r>    -2.0102     0.0000     0.0000 </r>
       <r>    -1.9199     0.0000     0.0000 </r>
       <r>    -1.8297     0.0000     0.0000 </r>
       <r>    -1.7394     0.0000     0.0000 </r>
       <r>    -1.6492     0.0000     0.0000 </r>
       <r>    -1.5589     0.0000     0.0000 </r>
       <r>    -1.4687     0.0000     0.0000 </r>
       <r>    -1.3785     0.0000     0.0000 </r>
       <r>    -1.2882     0.0000     0.0000 </r>
       <r>    -1.1980     0.0000     0.0000 </r>
       <r>    -1.1077     0.0000     0.0000 </r>
       <r>    -1.0175     0.0000     0.0000 </r>
       <r>    -0.9272     0.0000     0.0000 </r>
       <r>    -0.8370     0.0000     0.0000 </r>
       <r>    -0.7468     0.0000     0.0000 </r>
       <r>    -0.6565     0.0000     0.0000 </r>
       <r>    -0.5663     0.0000     0.0000 </r>
       <r>    -0.4760     0.0000     0.0000 </r>
       <r>    -0.3858     0.0000     0.0000 </r>
       <r>    -0.2955     0.0000     0.0000 </r>
       <r>    -0.2053     0.0000     0.0000 </r>
       <r>    -0.1151     0.0000     0.0000 </r>
       <r>    -0.0248     0.0000     0.0000 </r>
       <r>     0.0654     0.0000     0.0000 </r>
       <r>     0.1557     0.0000     0.0000 </r>
       <r>     0.2459     0.0000     0.0000 </r>
       <r>     0.3362     0.0000     0.0000 </r>
       <r>     0.4264     0.0000     0.0000 </r>
       <r>     0.5166     0.0000     0.0000 </r>
       <r>     0.6069     0.0000     0.0000 </r>
       <r>     0.6971     0.0000     0.0000 </r>
       <r>     0.7874     0.0000     0.0000 </r>
       <r>     0.8776     0.0000     0.0000 </r>
       <r>     0.9679     0.0000     0.0000 </r>
       <r>     1.0581     0.0000     0.0000 </r>
       <r>     1.1483     0.0000     0.0000 </r>
       <r>     1.2386     0.0000     0.0000 </r>
       <r>     1.3288     0.0000     0.0000 </r>
       <r>     1.4191     0.0000     0.0000 </r>
       <r>     1.5093     0.0000     0.0000 </r>
       <r>     1.5996     0.0000     0.0000 </r>
       <r>     1.6898     0.0000     0.0000 </r>
       <r>     1.7800     0.0000     0.0000 </r>
       <r>     1.8703     0.0000     0.0000 </r>
       <r>     1.9605     0.0000     0.0000 </r>
       <r>     2.0508     0.0000     0.0000 </r>
       <r>     2.1410     0.0000     0.0000 </r>
       <r>     2.2313     0.0000     0.0000 </r>
       <r>     2.3215     0.0000     0.0000 </r>
       <r>     2.4117     0.0000     0.0000 </r>
       <r>     2.5020     0.0000     0.0000 </r>
       <r>     2.5922     0.0000     0.0000 </r>
       <r>     2.6825     0.0000     0.0000 </r>
       <r>     2.7727     0.0000     0.0000 </r>
       <r>     2.8630     0.0000     0.0000 </r>
       <r>     2.9532     0.0000     0.0000 </r>
       <r>     3.0434     0.0000     0.0000 </r>
       <r>     3.1337     0.0000     0.0000 </r>
       <r>     3.2239     0.0000     0.0000 </r>
       <r>     3.3142     0.0000     0.0000 </r>
       <r>     3.4044     0.0000     0.0000 </r>
       <r>     3.4947     0.0000     0.0000 </r>
       <r>     3.5849     0.0000     0.0000 </r>
       <r>     3.6751     0.0000     0.0000 </r>
       <r>     3.7654     0.0000     0.0000 </r>
       <r>     3.8556     0.0000     0.0000 </r>
       <r>     3.9459     0.0000     0.0000 </r>
       <r>     4.0361     0.0000     0.0000 </r>
       <r>     4.1264     0.0000     0.0000 </r>
       <r>     4.2166     0.0000     0.0000 </r>
       <r>     4.3068     0.0000     0.0000 </r>
       <r>     4.3971     0.0000     0.0000 </r>
       <r>     4.4873     0.0000     0.0000 </r>
       <r>     4.5776     0.0000     0.0000 </r>
       <r>     4.6678     0.0000     0.0000 </r>
       <r>     4.7581     0.0000     0.0000 </r>
       <r>     4.8483     0.0000     0.0000 </r>
       <r>     4.9385     0.0000     0.0000 </r>
       <r>     5.0288     0.0000     0.0000 </r>
       <r>     5.1190     0.0000     0.0000 </r>
       <r>     5.2093     0.0000     0.0000 </r>
       <r>     5.2995     0.0000     0.0000 </r>
       <r>     5.3898     0.0000     0.0000 </r>
       <r>     5.4800     0.0000     0.0000 </r>
       <r>     5.5702     0.0000     0.0000 </r>
       <r>     5.6605     0.0000     0.0000 </r>
       <r>     5.7507     0.0000     0.0000 </r>
       <r>     5.8410     0.0000     0.0000 </r>
       <r>     5.9312     0.0000     0.0000 </r>
       <r>     6.0215     0.0000     0.0000 </r>
       <r>     6.1117     0.0000     0.0000 </r>
       <r>     6.2019     0.0000     0.0000 </r>
       <r>     6.2922     0.0000     0.0000 </r>
       <r>     6.3824     0.0000     0.0000 </r>
       <r>     6.4727     0.0000     0.0000 </r>
       <r>     6.5629     0.0000     0.0000 </r>
       <r>     6.6532     0.0000     0.0000 </r>
       <r>     6.7434     0.0000     0.0000 </r>
       <r>     6.8336     0.0000     0.0000 </r>
       <r>     6.9239     0.0000     0.0000 </r>
       <r>     7.0141     0.0000     0.0000 </r>
       <r>     7.1044     0.0000     0.0000 </r>
       <r>     7.1946     0.0000     0.0000 </r>
       <r>     7.2849     0.0000     0.0000 </r>
       <r>     7.3751     0.0000     0.0000 </r>
       <r>     7.4653     0.0000     0.0000 </r>
       <r>     7.5556     0.0000     0.0000 </r>
       <r>     7.6458     0.0000     0.0000 </r>
       <r>     7.7361     0.0000     0.0000 </r>
       <r>     7.8263     0.0000     0.0000 </r>
       <r>     7.9166     0.0000     0.0000 </r>
       <r>     8.0068     0.0000     0.0000 </r>
       <r>     8.0970     0.0000     0.0000 </r>
       <r>     8.1873     0.0000     0.0000 </r>
       <r>     8.2775     0.0000     0.0000 </r>
       <r>     8.3678     0.0000     0.0000 </r>
       <r>     8.4580     0.0000     0.0000 </r>
       <r>     8.5483     0.0000     0.0000 </r>
       <r>     8.6385     0.0000     0.0000 </r>
       <r>     8.7287     0.0000     0.0000 </r>
       <r>     8.8190     0.0000     0.0000 </r>
       <r>     8.9092     0.0000     0.0000 </r>
       <r>     8.9995     0.0000     0.0000 </r>
       <r>     9.0897     0.0000     0.0000 </r>
       <r>     9.1799     0.0000     0.0000 </r>
       <r>     9.2702     0.0000     0.0000 </r>
       <r>     9.3604     0.0000     0.0000 </r>
       <r>     9.4507     0.0000     0.0000 </r>
       <r>     9.5409     0.0000     0.0000 </r>
       <r>     9.6312     0.0000     0.0000 </r>
       <r>     9.7214     0.0000     0.0000 </r>
       <r>     9.8116     0.0000     0.0000 </r>
       <r>     9.9019     0.0000     0.0000 </r>
       <r>     9.9921     0.0000     0.0000 </r>
       <r>    10.0824     0.0000     0.0000 </r>
       <r>    10.1726     0.0000     0.0000 </r>
       <r>    10.2629     0.0000     0.0000 </r>
       <r>    10.3531     0.0000     0.0000 </r>
       <r>    10.4433     0.0000     0.0000 </r>
       <r>    10.5336     0.0000     0.0000 </r>
       <r>    10.6238     0.0000     0.0000 </r>
       <r>    10.7141     0.0000     0.0000 </r>
       <r>    10.8043     0.0000     0.0000 </r>
       <r>    10.8946     0.0000     0.0000 </r>
       <r>    10.9848     0.0000     0.0000 </r>
       <r>    11.0750     0.0000     0.0000 </r>
       <r>    11.1653     0.0000     0.0000 </r>
       <r>    11.2555     0.0000     0.0000 </r>
       <r>    11.3458     0.0000     0.0000 </r>
       <r>    11.4360     0.0000     0.0000 </r>
       <r>    11.5263     0.0000     0.0000 </r>
       <r>    11.6165     0.0000     0.0000 </r>
       <r>    11.7067     0.0000     0.0000 </r>
       <r>    11.7970     0.0000     0.0000 </r>
       <r>    11.8872     0.0000     0.0000 </r>
       <r>    11.9775     0.0000     0.0000 </r>
       <r>    12.0677     0.0000     0.0000 </r>
       <r>    12.1580     0.0000     0.0000 </r>
       <r>    12.2482     0.0000     0.0000 </r>
       <r>    12.3384     0.0000     0.0000 </r>
       <r>    12.4287     0.0000     0.0000 </r>
       <r>    12.5189     0.0000     0.0000 </r>
       <r>    12.6092     0.0000     0.0000 </r>
       <r>    12.6994     0.0000     0.0000 </r>
       <r>    12.7897     0.0000     0.0000 </r>
       <r>    12.8799     0.0000     0.0000 </r>
       <r>    12.9701     0.0000     0.0000 </r>
       <r>    13.0604     0.0000     0.0000 </r>
       <r>    13.1506     0.0000     0.0000 </r>
       <r>    13.2409     0.0000     0.0000 </r>
       <r>    13.3311     0.0000     0.0000 </r>
       <r>    13.4214     0.0000     0.0000 </r>
       <r>    13.5116     0.0000     0.0000 </r>
       <r>    13.6018     0.0000     0.0000 </r>
       <r>    13.6921     0.0000     0.0000 </r>
       <r>    13.7823     0.0000     0.0000 </r>
       <r>    13.8726     0.0000     0.0000 </r>
       <r>    13.9628     0.0000     0.0000 </r>
       <r>    14.0531     0.0000     0.0000 </r>
       <r>    14.1433     0.0000     0.0000 </r>
       <r>    14.2335     0.0000     0.0000 </r>
       <r>    14.3238     0.0000     0.0000 </r>
       <r>    14.4140     0.0000     0.0000 </r>
       <r>    14.5043     0.0000     0.0000 </r>
       <r>    14.5945     0.0000     0.0000 </r>
       <r>    14.6848     0.0000     0.0000 </r>
       <r>    14.7750     0.0000     0.0000 </r>
       <r>    14.8652     0.0000     0.0000 </r>
       <r>    14.9555     0.0000     0.0000 </r>
       <r>    15.0457     0.0000     0.0000 </r>
       <r>    15.1360     0.0000     0.0000 </r>
       <r>    15.2262     0.0000     0.0000 </r>
       <r>    15.3165     0.0000     0.0000 </r>
       <r>    15.4067     0.0000     0.0000 </r>
       <r>    15.4969     0.0000     0.0000 </r>
       <r>    15.5872     0.0000     0.0000 </r>
       <r>    15.6774     0.0000     0.0000 </r>
       <r>    15.7677     0.0000     0.0000 </r>
       <r>    15.8579     0.0000     0.0000 </r>
       <r>    15.9482     0.0000     0.0000 </r>
       <r>    16.0384     0.0000     0.0000 </r>
       <r>    16.1286     0.0000     0.0000 </r>
       <r>    16.2189     0.0000     0.0000 </r>
       <r>    16.3091     0.0000     0.0000 </r>
       <r>    16.3994     0.0000     0.0000 </r>
       <r>    16.4896     0.0000     0.0000 </r>
       <r>    16.5799     0.0000     0.0000 </r>
       <r>    16.6701     0.0000     0.0000 </r>
       <r>    16.7603     0.0000     0.0000 </r>
       <r>    16.8506     0.0000     0.0000 </r>
       <r>    16.9408     0.0000     0.0000 </r>
       <r>    17.0311     0.0000     0.0000 </r>
       <r>    17.1213     0.0000     0.0000 </r>
       <r>    17.2116     0.0000     0.0000 </r>
       <r>    17.3018     0.0000     0.0000 </r>
      </set>
     </set>
    </array>
   </total>
  </dos>
 </calculation>
 <structure name="finalpos" >
  <crystal>
   <varray name="basis" >
    <v>       0.00000000       3.02920000       3.02920000 </v>
    <v>       3.02920000       0.00000000       3.02920000 </v>
    <v>       3.02920000       3.02920000       0.00000000 </v>
   </varray>
   <i name="volume">     55.59219731 </i>
   <varray name="rec_basis" >
    <v>      -0.16506008       0.16506008       0.16506008 </v>
    <v>       0.16506008      -0.16506008       0.16506008 </v>
    <v>       0.16506008       0.16506008      -0.16506008 </v>
   </varray>
  </crystal>
  <varray name="positions" >
   <v>       0.00000000       0.00000000       0.00000000 </v>
   <v>       0.75000000       0.75000000       0.75000000 </v>
  </varray>
 </structure>
</modeling>
