 running on   56 total cores
 distrk:  each k-point on   56 cores,    1 groups
 distr:  one band on    1 cores,   56 groups
 using from now: INCAR     
 vasp.5.4.4.18Apr17-6-g9f103f2a35 (build Nov 08 2017 12:56:59) complex          
  
 POSCAR found type information on POSCAR  In As
 POSCAR found :  2 types and       2 ions
 scaLAPACK will be used

 ----------------------------------------------------------------------------- 
|                                                                             |
|           W    W    AA    RRRRR   N    N  II  N    N   GGGG   !!!           |
|           W    W   A  A   R    R  NN   N  II  NN   N  G    G  !!!           |
|           W    W  A    A  R    R  N N  N  II  N N  N  G       !!!           |
|           W WW W  AAAAAA  RRRRR   N  N N  II  N  N N  G  GGG   !            |
|           WW  WW  A    A  R   R   N   NN  II  N   NN  G    G                |
|           W    W  A    A  R    R  N    N  II  N    N   GGGG   !!!           |
|                                                                             |
|      For optimal performance we recommend to set                            |
|        NCORE= 4 - approx SQRT( number of cores)                             |
|      NCORE specifies how many cores store one orbital (NPAR=cpu/NCORE).     |
|      This setting can  greatly improve the performance of VASP for DFT.     |
|      The default,   NCORE=1            might be grossly inefficient         |
|      on modern multi-core architectures or massively parallel machines.     |
|      Do your own testing !!!!                                               |
|      Unfortunately you need to use the default for GW and RPA calculations. |
|      (for HF NCORE is supported but not extensively tested yet)             |
|                                                                             |
 ----------------------------------------------------------------------------- 

 LDA part: xc-table for Pade appr. of Perdew
 POSCAR, INCAR and KPOINTS ok, starting setup
 FFT: planning ...
 WAVECAR not read
 entering main loop
       N       E                     dE             d eps       ncg     rms          ort
DAV:   1     0.577545451300E+01    0.57755E+01   -0.29931E+03  1232   0.178E+02
DAV:   2    -0.782530928694E+01   -0.13601E+02   -0.13601E+02  1232   0.257E+01
DAV:   3    -0.795305872557E+01   -0.12775E+00   -0.12774E+00  1232   0.337E+00
DAV:   4    -0.795402851280E+01   -0.96979E-03   -0.96978E-03  1232   0.267E-01
DAV:   5    -0.795403923945E+01   -0.10727E-04   -0.10727E-04  1232   0.290E-02
 gam= 0.000 g(H,U,f)=  0.685E-01 0.441E+00 0.117E-01 ort(H,U,f) = 0.000E+00 0.000E+00 0.000E+00
SDA:   6    -0.738224254738E+01    0.57180E+00   -0.20856E+00  1232   0.521E+00 0.000E+00
 gam= 0.382 g(H,U,f)=  0.108E-01 0.173E+00 0.844E-03 ort(H,U,f) = 0.274E-01 0.277E+00 0.132E-02
DMP:   7    -0.755061493666E+01   -0.16837E+00   -0.12072E+00  1232   0.185E+00 0.306E+00
 gam= 0.382 g(H,U,f)=  0.177E-02 0.318E-01-0.724E-07 ort(H,U,f) =-0.240E-02 0.120E+00-0.259E-06
DMP:   8    -0.763386754907E+01   -0.83253E-01   -0.31330E-01  1232   0.336E-01 0.117E+00
 gam= 0.382 g(H,U,f)=  0.516E-02 0.111E-02 0.313E-11 ort(H,U,f) =-0.216E-02 0.127E-01 0.239E-11
DMP:   9    -0.765160264875E+01   -0.17735E-01   -0.41171E-02  1232   0.627E-02 0.105E-01
 gam= 0.382 g(H,U,f)=  0.339E-02 0.137E-02 0.579E-11 ort(H,U,f) = 0.316E-02-0.617E-02-0.612E-11
DMP:  10    -0.765305121028E+01   -0.14486E-02   -0.14444E-02  1232   0.476E-02-0.301E-02
 gam= 0.382 g(H,U,f)=  0.834E-03 0.191E-02 0.341E-11 ort(H,U,f) = 0.209E-02-0.143E-02 0.176E-11
DMP:  11    -0.765390237501E+01   -0.85116E-03   -0.11996E-02  1232   0.275E-02 0.662E-03
 gam= 0.382 g(H,U,f)=  0.117E-03 0.909E-03 0.690E-12 ort(H,U,f) = 0.228E-03 0.933E-03 0.127E-11
DMP:  12    -0.765473357090E+01   -0.83120E-03   -0.58780E-03  1232   0.103E-02 0.116E-02
 gam= 0.382 g(H,U,f)=  0.127E-03 0.214E-03 0.363E-12 ort(H,U,f) =-0.129E-03 0.616E-03 0.725E-12
DMP:  13    -0.765512488276E+01   -0.39131E-03   -0.21109E-03  1232   0.342E-03 0.487E-03
 gam= 0.382 g(H,U,f)=  0.113E-03 0.194E-04 0.229E-12 ort(H,U,f) = 0.235E-04 0.134E-03 0.451E-12
DMP:  14    -0.765526215494E+01   -0.13727E-03   -0.77181E-04  1232   0.133E-03 0.158E-03
 gam= 0.382 g(H,U,f)=  0.493E-04 0.112E-05 0.122E-12 ort(H,U,f) = 0.657E-04-0.550E-05 0.257E-12
DMP:  15    -0.765531309824E+01   -0.50943E-04   -0.29354E-04  1232   0.504E-04 0.602E-04
 final diagonalization
   1 F= -.76553131E+01 E0= -.76552696E+01  d E =-.130599E-03  mag=     0.0000     0.0000    -0.0000
 writing wavefunctions
