<?xml version="1.0" encoding="ISO-8859-1"?>
<modeling>
 <generator>
  <i name="program" type="string">vasp </i>
  <i name="version" type="string">5.4.4.18Apr17-6-g9f103f2a35  </i>
  <i name="subversion" type="string">(build Nov 08 2017 12:56:59) complex            parallel </i>
  <i name="platform" type="string">LinuxIFC </i>
  <i name="date" type="string">2021 06 01 </i>
  <i name="time" type="string">12:04:03 </i>
 </generator>
 <incar>
  <i type="string" name="PREC">n</i>
  <i type="string" name="ALGO"> Fast</i>
  <i type="logical" name="LSORBIT"> T  </i>
  <i name="BMIX">      3.00000000</i>
  <i name="AMIN">      0.01000000</i>
  <i type="int" name="ICHARG">     2</i>
  <i type="int" name="NELM">   500</i>
  <i name="EDIFF">      0.00001000</i>
  <i name="ENCUT">    400.00000000</i>
  <i type="int" name="NBANDS">    15</i>
  <v name="MAGMOM">      0.00000000      0.00000000      0.00000000      0.00000000      0.00000000      0.00000000</v>
  <i type="int" name="ISMEAR">     0</i>
  <i name="SIGMA">      0.05000000</i>
  <i type="logical" name="LWAVE"> T  </i>
  <i type="logical" name="LCHARG"> T  </i>
  <i type="logical" name="LASPH"> T  </i>
  <v type="int" name="KPOINT_BSE">    -1     0     0     0</v>
  <i type="int" name="NELM">   500</i>
  <i type="logical" name="LASPH"> T  </i>
 </incar>
 <structure name="primitive_cell" >
  <crystal>
   <varray name="basis" >
    <v>       0.00000000       3.02920000       3.02920000 </v>
    <v>       3.02920000       0.00000000       3.02920000 </v>
    <v>       3.02920000       3.02920000       0.00000000 </v>
   </varray>
   <i name="volume">     55.59219731 </i>
   <varray name="rec_basis" >
    <v>      -0.16506008       0.16506008       0.16506008 </v>
    <v>       0.16506008      -0.16506008       0.16506008 </v>
    <v>       0.16506008       0.16506008      -0.16506008 </v>
   </varray>
  </crystal>
  <varray name="positions" >
   <v>       0.00000000       0.00000000       0.00000000 </v>
   <v>      -0.25000000      -0.25000000      -0.25000000 </v>
  </varray>
 </structure>
 <varray name="primitive_index" >
  <v type="int" >        1 </v>
  <v type="int" >        2 </v>
 </varray>
 <kpoints>
  <generation param="Gamma">
   <v type="int" name="divisions">       7        7        7 </v>
   <v name="usershift">      0.00000000       0.00000000       0.00000000 </v>
   <v name="genvec1">      0.14285714       0.00000000       0.00000000 </v>
   <v name="genvec2">      0.00000000       0.14285714       0.00000000 </v>
   <v name="genvec3">      0.00000000       0.00000000       0.14285714 </v>
   <v name="shift">      0.00000000       0.00000000       0.00000000 </v>
  </generation>
  <varray name="kpointlist" >
   <v>       0.00000000       0.00000000       0.00000000 </v>
   <v>       0.14285714       0.00000000       0.00000000 </v>
   <v>       0.28571429       0.00000000       0.00000000 </v>
   <v>       0.42857143       0.00000000       0.00000000 </v>
   <v>      -0.42857143       0.00000000       0.00000000 </v>
   <v>      -0.28571429       0.00000000       0.00000000 </v>
   <v>      -0.14285714       0.00000000       0.00000000 </v>
   <v>       0.14285714       0.14285714       0.00000000 </v>
   <v>       0.28571429       0.14285714       0.00000000 </v>
   <v>       0.42857143       0.14285714       0.00000000 </v>
   <v>      -0.42857143       0.14285714       0.00000000 </v>
   <v>      -0.28571429       0.14285714       0.00000000 </v>
   <v>      -0.14285714       0.14285714       0.00000000 </v>
   <v>       0.28571429       0.28571429       0.00000000 </v>
   <v>       0.42857143       0.28571429       0.00000000 </v>
   <v>      -0.42857143       0.28571429       0.00000000 </v>
   <v>      -0.28571429       0.28571429       0.00000000 </v>
   <v>      -0.14285714       0.28571429       0.00000000 </v>
   <v>       0.42857143       0.42857143       0.00000000 </v>
   <v>      -0.42857143       0.42857143       0.00000000 </v>
   <v>      -0.28571429       0.42857143       0.00000000 </v>
   <v>      -0.14285714       0.42857143       0.00000000 </v>
   <v>      -0.28571429      -0.42857143       0.00000000 </v>
   <v>      -0.14285714      -0.42857143       0.00000000 </v>
   <v>      -0.14285714      -0.28571429       0.00000000 </v>
   <v>       0.42857143       0.28571429       0.14285714 </v>
   <v>      -0.42857143       0.28571429       0.14285714 </v>
   <v>      -0.28571429       0.28571429       0.14285714 </v>
   <v>      -0.42857143       0.42857143       0.14285714 </v>
   <v>      -0.28571429       0.42857143       0.14285714 </v>
  </varray>
  <varray name="weights" >
   <v>       0.00291545 </v>
   <v>       0.01166181 </v>
   <v>       0.01166181 </v>
   <v>       0.01166181 </v>
   <v>       0.01166181 </v>
   <v>       0.01166181 </v>
   <v>       0.01166181 </v>
   <v>       0.01749271 </v>
   <v>       0.03498542 </v>
   <v>       0.03498542 </v>
   <v>       0.03498542 </v>
   <v>       0.03498542 </v>
   <v>       0.03498542 </v>
   <v>       0.01749271 </v>
   <v>       0.03498542 </v>
   <v>       0.03498542 </v>
   <v>       0.03498542 </v>
   <v>       0.03498542 </v>
   <v>       0.01749271 </v>
   <v>       0.03498542 </v>
   <v>       0.03498542 </v>
   <v>       0.03498542 </v>
   <v>       0.03498542 </v>
   <v>       0.03498542 </v>
   <v>       0.03498542 </v>
   <v>       0.06997085 </v>
   <v>       0.06997085 </v>
   <v>       0.06997085 </v>
   <v>       0.06997085 </v>
   <v>       0.06997085 </v>
  </varray>
 </kpoints>
 <parameters>
  <separator name="general" >
   <i type="string" name="SYSTEM">unknown system</i>
   <i type="logical" name="LCOMPAT"> F  </i>
  </separator>
  <separator name="electronic" >
   <i type="string" name="PREC">n</i>
   <i name="ENMAX">    400.00000000</i>
   <i name="ENAUG">    462.75800000</i>
   <i name="EDIFF">      0.00001000</i>
   <i type="int" name="IALGO">    68</i>
   <i type="int" name="IWAVPR">    10</i>
   <i type="int" name="NBANDS">    21</i>
   <i name="NELECT">      8.00000000</i>
   <i type="int" name="TURBO">     0</i>
   <i type="int" name="IRESTART">     0</i>
   <i type="int" name="NREBOOT">     0</i>
   <i type="int" name="NMIN">     0</i>
   <i name="EREF">      0.00000000</i>
   <separator name="electronic smearing" >
    <i type="int" name="ISMEAR">     0</i>
    <i name="SIGMA">      0.05000000</i>
    <i name="KSPACING">      0.50000000</i>
    <i type="logical" name="KGAMMA"> T  </i>
   </separator>
   <separator name="electronic projectors" >
    <i type="logical" name="LREAL"> F  </i>
    <v name="ROPT">      0.00000000      0.00000000</v>
    <i type="int" name="LMAXPAW">  -100</i>
    <i type="int" name="LMAXMIX">     2</i>
    <i type="logical" name="NLSPLINE"> F  </i>
   </separator>
   <separator name="electronic startup" >
    <i type="int" name="ISTART">     0</i>
    <i type="int" name="ICHARG">     2</i>
    <i type="int" name="INIWAV">     1</i>
   </separator>
   <separator name="electronic spin" >
    <i type="int" name="ISPIN">     1</i>
    <i type="logical" name="LNONCOLLINEAR"> T  </i>
    <v name="MAGMOM">      0.00000000      0.00000000      0.00000000      0.00000000      0.00000000      0.00000000</v>
    <i name="NUPDOWN">     -1.00000000</i>
    <i type="logical" name="LSORBIT"> T  </i>
    <v name="SAXIS">      0.00000000      0.00000000      1.00000000</v>
    <i type="logical" name="LSPIRAL"> F  </i>
    <v name="QSPIRAL">      0.00000000      0.00000000      0.00000000</v>
    <i type="logical" name="LZEROZ"> F  </i>
   </separator>
   <separator name="electronic exchange-correlation" >
    <i type="logical" name="LASPH"> T  </i>
    <i type="logical" name="LMETAGGA"> F  </i>
   </separator>
   <separator name="electronic convergence" >
    <i type="int" name="NELM">   500</i>
    <i type="int" name="NELMDL">    -5</i>
    <i type="int" name="NELMIN">     2</i>
    <i name="ENINI">    400.00000000</i>
    <separator name="electronic convergence detail" >
     <i type="logical" name="LDIAG"> T  </i>
     <i type="logical" name="LSUBROT"> F  </i>
     <i name="WEIMIN">      0.00000000</i>
     <i name="EBREAK">      0.00000012</i>
     <i name="DEPER">      0.30000000</i>
     <i type="int" name="NRMM">     4</i>
     <i name="TIME">      0.40000000</i>
    </separator>
   </separator>
   <separator name="electronic mixer" >
    <i name="AMIX">      0.40000000</i>
    <i name="BMIX">      3.00000000</i>
    <i name="AMIN">      0.01000000</i>
    <i name="AMIX_MAG">      1.60000000</i>
    <i name="BMIX_MAG">      3.00000000</i>
    <separator name="electronic mixer details" >
     <i type="int" name="IMIX">     4</i>
     <i type="logical" name="MIXFIRST"> F  </i>
     <i type="int" name="MAXMIX">   -45</i>
     <i name="WC">    100.00000000</i>
     <i type="int" name="INIMIX">     1</i>
     <i type="int" name="MIXPRE">     1</i>
     <i type="int" name="MREMOVE">     5</i>
    </separator>
   </separator>
   <separator name="electronic dipolcorrection" >
    <i type="logical" name="LDIPOL"> F  </i>
    <i type="logical" name="LMONO"> F  </i>
    <i type="int" name="IDIPOL">     0</i>
    <i name="EPSILON">      1.00000000</i>
    <v name="DIPOL">   -100.00000000   -100.00000000   -100.00000000</v>
    <i name="EFIELD">      0.00000000</i>
   </separator>
  </separator>
  <separator name="grids" >
   <i type="int" name="NGX">    24</i>
   <i type="int" name="NGY">    24</i>
   <i type="int" name="NGZ">    24</i>
   <i type="int" name="NGXF">    48</i>
   <i type="int" name="NGYF">    48</i>
   <i type="int" name="NGZF">    48</i>
   <i type="logical" name="ADDGRID"> F  </i>
  </separator>
  <separator name="ionic" >
   <i type="int" name="NSW">     0</i>
   <i type="int" name="IBRION">    -1</i>
   <i type="int" name="MDALGO">     0</i>
   <i type="int" name="ISIF">     2</i>
   <i name="PSTRESS">      0.00000000</i>
   <i name="EDIFFG">      0.00010000</i>
   <i type="int" name="NFREE">     0</i>
   <i name="POTIM">      0.50000000</i>
   <i name="SMASS">     -3.00000000</i>
   <i name="SCALEE">      1.00000000</i>
  </separator>
  <separator name="ionic md" >
   <i name="TEBEG">      0.00010000</i>
   <i name="TEEND">      0.00010000</i>
   <i type="int" name="NBLOCK">     1</i>
   <i type="int" name="KBLOCK">     1</i>
   <i type="int" name="NPACO">   256</i>
   <i name="APACO">     16.00000000</i>
  </separator>
  <separator name="symmetry" >
   <i type="int" name="ISYM">     2</i>
   <i name="SYMPREC">      0.00001000</i>
  </separator>
  <separator name="dos" >
   <i type="int" name="LORBIT">     0</i>
   <v name="RWIGS">     -1.00000000     -1.00000000</v>
   <i type="int" name="NEDOS">   301</i>
   <i name="EMIN">     10.00000000</i>
   <i name="EMAX">    -10.00000000</i>
   <i name="EFERMI">      0.00000000</i>
  </separator>
  <separator name="writing" >
   <i type="int" name="NWRITE">     2</i>
   <i type="logical" name="LWAVE"> T  </i>
   <i type="logical" name="LDOWNSAMPLE"> F  </i>
   <i type="logical" name="LCHARG"> T  </i>
   <i type="logical" name="LPARD"> F  </i>
   <i type="logical" name="LVTOT"> F  </i>
   <i type="logical" name="LVHAR"> F  </i>
   <i type="logical" name="LELF"> F  </i>
   <i type="logical" name="LOPTICS"> F  </i>
   <v name="STM">      0.00000000      0.00000000      0.00000000      0.00000000      0.00000000      0.00000000      0.00000000</v>
  </separator>
  <separator name="performance" >
   <i type="int" name="NPAR">     7</i>
   <i type="int" name="NSIM">     4</i>
   <i type="int" name="NBLK">    -1</i>
   <i type="logical" name="LPLANE"> T  </i>
   <i type="logical" name="LSCALAPACK"> T  </i>
   <i type="logical" name="LSCAAWARE"> F  </i>
   <i type="logical" name="LSCALU"> F  </i>
   <i type="logical" name="LASYNC"> F  </i>
   <i type="logical" name="LORBITALREAL"> F  </i>
  </separator>
  <separator name="miscellaneous" >
   <i type="int" name="IDIOT">     3</i>
   <i type="int" name="ISPECIAL">     0</i>
   <i type="logical" name="LMUSIC"> F  </i>
   <v name="POMASS">    114.82000000     74.92200000</v>
   <v name="DARWINR">      0.00000000      0.00000000</v>
   <v name="DARWINV">      1.00000000      1.00000000</v>
   <i type="logical" name="LCORR"> T  </i>
  </separator>
  <i type="logical" name="GGA_COMPAT"> T  </i>
  <i type="logical" name="LBERRY"> F  </i>
  <i type="int" name="ICORELEVEL">     0</i>
  <i type="logical" name="LDAU"> F  </i>
  <i type="int" name="I_CONSTRAINED_M">     0</i>
  <separator name="electronic exchange-correlation" >
   <i type="string" name="GGA">--</i>
   <i type="int" name="VOSKOWN">     0</i>
   <i type="logical" name="LHFCALC"> F  </i>
   <i type="string" name="PRECFOCK"></i>
   <i type="logical" name="LSYMGRAD"> F  </i>
   <i type="logical" name="LHFONE"> F  </i>
   <i type="logical" name="LRHFCALC"> F  </i>
   <i type="logical" name="LTHOMAS"> F  </i>
   <i type="logical" name="LMODELHF"> F  </i>
   <i name="ENCUT4O">     -1.00000000</i>
   <i type="int" name="EXXOEP">     0</i>
   <i type="int" name="FOURORBIT">     0</i>
   <i name="AEXX">      0.00000000</i>
   <i name="HFALPHA">      0.00000000</i>
   <i name="MCALPHA">      0.00000000</i>
   <i name="ALDAX">      1.00000000</i>
   <i name="AGGAX">      1.00000000</i>
   <i name="ALDAC">      1.00000000</i>
   <i name="AGGAC">      1.00000000</i>
   <i type="int" name="NKREDX">     1</i>
   <i type="int" name="NKREDY">     1</i>
   <i type="int" name="NKREDZ">     1</i>
   <i type="logical" name="SHIFTRED"> F  </i>
   <i type="logical" name="ODDONLY"> F  </i>
   <i type="logical" name="EVENONLY"> F  </i>
   <i type="int" name="LMAXFOCK">     0</i>
   <i type="int" name="NMAXFOCKAE">     0</i>
   <i type="logical" name="LFOCKAEDFT"> F  </i>
   <i name="HFSCREEN">      0.00000000</i>
   <i name="HFSCREENC">      0.00000000</i>
   <i type="int" name="NBANDSGWLOW">     0</i>
  </separator>
  <separator name="vdW DFT" >
   <i type="logical" name="LUSE_VDW"> F  </i>
   <i name="Zab_VDW">     -0.84910000</i>
   <i name="PARAM1">      0.12340000</i>
   <i name="PARAM2">      1.00000000</i>
   <i name="PARAM3">      0.00000000</i>
  </separator>
  <separator name="model GW" >
   <i type="int" name="MODEL_GW">     0</i>
   <i name="MODEL_EPS0">     16.67765919</i>
   <i name="MODEL_ALPHA">      1.00000000</i>
  </separator>
  <separator name="linear response parameters" >
   <i type="logical" name="LEPSILON"> F  </i>
   <i type="logical" name="LRPA"> F  </i>
   <i type="logical" name="LNABLA"> F  </i>
   <i type="logical" name="LVEL"> F  </i>
   <i type="int" name="KINTER">     0</i>
   <i name="CSHIFT">      0.10000000</i>
   <i name="OMEGAMAX">     -1.00000000</i>
   <i name="DEG_THRESHOLD">      0.00200000</i>
   <i name="RTIME">     -0.10000000</i>
   <i name="WPLASMAI">      0.00000000</i>
   <v name="DFIELD">      0.00000000      0.00000000      0.00000000</v>
   <v name="WPLASMA">      0.00000000      0.00000000      0.00000000      0.00000000      0.00000000      0.00000000      0.00000000      0.00000000      0.00000000</v>
  </separator>
  <separator name="orbital magnetization" >
   <i type="logical" name="NUCIND"> F  </i>
   <v name="MAGPOS">      0.00000000      0.00000000      0.00000000</v>
   <i type="logical" name="LNICSALL"> T  </i>
   <i type="logical" name="ORBITALMAG"> F  </i>
   <i type="logical" name="LMAGBLOCH"> F  </i>
   <i type="logical" name="LCHIMAG"> F  </i>
   <i type="logical" name="LGAUGE"> T  </i>
   <i type="int" name="MAGATOM">     0</i>
   <v name="MAGDIPOL">      0.00000000      0.00000000      0.00000000</v>
   <v name="AVECCONST">      0.00000000      0.00000000      0.00000000</v>
  </separator>
  <separator name="response functions" >
   <i type="logical" name="LADDER"> F  </i>
   <i type="logical" name="LRPAFORCE"> F  </i>
   <i type="logical" name="LFXC"> F  </i>
   <i type="logical" name="LHARTREE"> T  </i>
   <i type="int" name="IBSE">     0</i>
   <v type="int" name="KPOINT">    -1     0     0     0</v>
   <i type="logical" name="LTCTE"> F  </i>
   <i type="logical" name="LTETE"> F  </i>
   <i type="logical" name="LTRIPLET"> F  </i>
   <i type="logical" name="LFXCEPS"> F  </i>
   <i type="logical" name="LFXHEG"> F  </i>
   <i type="int" name="NATURALO">     2</i>
   <i type="logical" name="L2ORDER"> F  </i>
   <i type="logical" name="LMP2LT"> F  </i>
   <i type="logical" name="LUSEW"> F  </i>
   <i name="ENCUTGW">     -2.00000000</i>
   <i name="ENCUTGWSOFT">     -2.00000000</i>
   <i name="ENCUTLF">     -1.00000000</i>
   <i type="int" name="LMAXMP2">    -1</i>
   <i name="SCISSOR">      0.00000000</i>
   <i type="int" name="NOMEGA">     0</i>
   <i type="int" name="NOMEGAR">     0</i>
   <i type="int" name="NBANDSGW">    -1</i>
   <i type="int" name="NBANDSO">    -1</i>
   <i type="int" name="NBANDSV">    -1</i>
   <i type="int" name="NELM">   500</i>
   <i type="int" name="NELMHF">     1</i>
   <i type="int" name="DIM">     3</i>
   <i type="int" name="ANTIRES">     0</i>
   <i name="OMEGAMAX">    -30.00000000</i>
   <i name="OMEGAMIN">    -30.00000000</i>
   <i name="OMEGATL">   -200.00000000</i>
   <i type="int" name="OMEGAGRID">   140</i>
   <i name="CSHIFT">     -0.10000000</i>
   <i type="logical" name="SELFENERGY"> F  </i>
   <i type="logical" name="LSPECTRAL"> F  </i>
   <i type="logical" name="LSPECTRALGW"> F  </i>
   <i type="logical" name="LSINGLES"> F  </i>
   <i type="logical" name="LFERMIGW"> F  </i>
   <i type="logical" name="ODDONLYGW"> F  </i>
   <i type="logical" name="EVENONLYGW"> F  </i>
   <i type="int" name="NKREDLFX">     1</i>
   <i type="int" name="NKREDLFY">     1</i>
   <i type="int" name="NKREDLFZ">     1</i>
   <i type="int" name="MAXMEM">  2800</i>
   <i type="int" name="TELESCOPE">     0</i>
   <i type="int" name="TAUPAR">     1</i>
   <i type="int" name="OMEGAPAR">    -1</i>
   <i name="LAMBDA">      1.00000000</i>
  </separator>
  <separator name="External order field" >
   <i name="OFIELD_KAPPA">      0.00000000</i>
   <v name="OFIELD_K">      0.00000000      0.00000000      0.00000000</v>
   <i name="OFIELD_Q6_NEAR">      0.00000000</i>
   <i name="OFIELD_Q6_FAR">      0.00000000</i>
   <i name="OFIELD_A">      0.00000000</i>
  </separator>
 </parameters>
 <atominfo>
  <atoms>       2 </atoms>
  <types>       2 </types>
  <array name="atoms" >
   <dimension dim="1">ion</dimension>
   <field type="string">element</field>
   <field type="int">atomtype</field>
   <set>
    <rc><c>In</c><c>   1</c></rc>
    <rc><c>As</c><c>   2</c></rc>
   </set>
  </array>
  <array name="atomtypes" >
   <dimension dim="1">type</dimension>
   <field type="int">atomspertype</field>
   <field type="string">element</field>
   <field>mass</field>
   <field>valence</field>
   <field type="string">pseudopotential</field>
   <set>
    <rc><c>   1</c><c>In</c><c>    114.82000000</c><c>      3.00000000</c><c>  PAW_PBE In 08Apr2002                  </c></rc>
    <rc><c>   1</c><c>As</c><c>     74.92200000</c><c>      5.00000000</c><c>  PAW_PBE As 22Sep2009                  </c></rc>
   </set>
  </array>
 </atominfo>
 <structure name="initialpos" >
  <crystal>
   <varray name="basis" >
    <v>       0.00000000       3.02920000       3.02920000 </v>
    <v>       3.02920000       0.00000000       3.02920000 </v>
    <v>       3.02920000       3.02920000       0.00000000 </v>
   </varray>
   <i name="volume">     55.59219731 </i>
   <varray name="rec_basis" >
    <v>      -0.16506008       0.16506008       0.16506008 </v>
    <v>       0.16506008      -0.16506008       0.16506008 </v>
    <v>       0.16506008       0.16506008      -0.16506008 </v>
   </varray>
  </crystal>
  <varray name="positions" >
   <v>       0.00000000       0.00000000       0.00000000 </v>
   <v>       0.75000000       0.75000000       0.75000000 </v>
  </varray>
 </structure>
 <calculation>
  <scstep>
   <time name="dav">    0.40    0.40</time>
   <time name="total">    3.41    3.42</time>
   <energy>
    <i name="alphaZ">      6.67624893 </i>
    <i name="ewald">   -213.84743004 </i>
    <i name="hartreedc">    -21.29595069 </i>
    <i name="XCdc">    -67.69638834 </i>
    <i name="pawpsdc">    241.28716127 </i>
    <i name="pawaedc">   -160.47085023 </i>
    <i name="eentropy">     -0.00062798 </i>
    <i name="bandstr">     10.37994569 </i>
    <i name="atom">    223.97621261 </i>
    <i name="e_fr_energy">     19.00832122 </i>
    <i name="e_wo_entrp">     19.00894920 </i>
    <i name="e_0_energy">     19.00863521 </i>
   </energy>
  </scstep>
  <scstep>
   <time name="dav">    0.46    0.46</time>
   <time name="total">    0.46    0.46</time>
   <energy>
    <i name="e_fr_energy">     -6.65290126 </i>
    <i name="e_wo_entrp">     -6.65285323 </i>
    <i name="e_0_energy">     -6.65287725 </i>
   </energy>
  </scstep>
  <scstep>
   <time name="dav">    0.47    0.47</time>
   <time name="total">    0.47    0.47</time>
   <energy>
    <i name="e_fr_energy">     -7.95342564 </i>
    <i name="e_wo_entrp">     -7.95328234 </i>
    <i name="e_0_energy">     -7.95335399 </i>
   </energy>
  </scstep>
  <scstep>
   <time name="dav">    0.44    0.44</time>
   <time name="total">    0.44    0.44</time>
   <energy>
    <i name="e_fr_energy">     -7.96248196 </i>
    <i name="e_wo_entrp">     -7.96233960 </i>
    <i name="e_0_energy">     -7.96241078 </i>
   </energy>
  </scstep>
  <scstep>
   <time name="dav">    0.48    0.48</time>
   <time name="total">    0.58    0.58</time>
   <energy>
    <i name="e_fr_energy">     -7.96253246 </i>
    <i name="e_wo_entrp">     -7.96239011 </i>
    <i name="e_0_energy">     -7.96246128 </i>
   </energy>
  </scstep>
  <scstep>
   <time name="diag">    0.11    0.11</time>
   <time name="diis">    0.27    0.27</time>
   <time name="orth">    0.01    0.01</time>
   <time name="total">    3.55    3.55</time>
   <energy>
    <i name="e_fr_energy">     -7.84344636 </i>
    <i name="e_wo_entrp">     -7.84322384 </i>
    <i name="e_0_energy">     -7.84333510 </i>
   </energy>
  </scstep>
  <scstep>
   <time name="diag">    0.10    0.10</time>
   <time name="diis">    0.26    0.26</time>
   <time name="orth">    0.00    0.00</time>
   <time name="total">    3.52    3.52</time>
   <energy>
    <i name="e_fr_energy">     -7.66028798 </i>
    <i name="e_wo_entrp">     -7.66012349 </i>
    <i name="e_0_energy">     -7.66020574 </i>
   </energy>
  </scstep>
  <scstep>
   <time name="diag">    0.12    0.12</time>
   <time name="diis">    0.26    0.26</time>
   <time name="orth">    0.04    0.04</time>
   <time name="total">    3.55    3.55</time>
   <energy>
    <i name="e_fr_energy">     -7.65712683 </i>
    <i name="e_wo_entrp">     -7.65696234 </i>
    <i name="e_0_energy">     -7.65704459 </i>
   </energy>
  </scstep>
  <scstep>
   <time name="diag">    0.11    0.11</time>
   <time name="diis">    0.26    0.26</time>
   <time name="orth">    0.02    0.02</time>
   <time name="total">    3.52    3.52</time>
   <energy>
    <i name="e_fr_energy">     -7.66210037 </i>
    <i name="e_wo_entrp">     -7.66193588 </i>
    <i name="e_0_energy">     -7.66201813 </i>
   </energy>
  </scstep>
  <scstep>
   <time name="diag">    0.11    0.11</time>
   <time name="diis">    0.26    0.26</time>
   <time name="orth">    0.02    0.02</time>
   <time name="total">    3.53    3.53</time>
   <energy>
    <i name="e_fr_energy">     -7.66409317 </i>
    <i name="e_wo_entrp">     -7.66392868 </i>
    <i name="e_0_energy">     -7.66401092 </i>
   </energy>
  </scstep>
  <scstep>
   <time name="diag">    0.11    0.11</time>
   <time name="diis">    0.26    0.26</time>
   <time name="orth">    0.02    0.02</time>
   <time name="total">    3.52    3.52</time>
   <energy>
    <i name="e_fr_energy">     -7.66548145 </i>
    <i name="e_wo_entrp">     -7.66531697 </i>
    <i name="e_0_energy">     -7.66539921 </i>
   </energy>
  </scstep>
  <scstep>
   <time name="diag">    0.10    0.11</time>
   <time name="diis">    0.17    0.25</time>
   <time name="orth">    0.03    0.03</time>
   <time name="total">    3.45    3.53</time>
   <energy>
    <i name="e_fr_energy">     -7.66552187 </i>
    <i name="e_wo_entrp">     -7.66535738 </i>
    <i name="e_0_energy">     -7.66543962 </i>
   </energy>
  </scstep>
  <scstep>
   <time name="diag">    0.06    0.11</time>
   <time name="diis">    0.27    0.27</time>
   <time name="orth">    0.01    0.01</time>
   <time name="total">    3.40    3.45</time>
   <energy>
    <i name="alphaZ">      6.67624893 </i>
    <i name="ewald">   -213.84743004 </i>
    <i name="hartreedc">    -25.56295459 </i>
    <i name="XCdc">    -66.88116177 </i>
    <i name="pawpsdc">    532.43883574 </i>
    <i name="pawaedc">   -452.13062722 </i>
    <i name="eentropy">     -0.00016449 </i>
    <i name="bandstr">    -12.33448618 </i>
    <i name="atom">    223.97621261 </i>
    <i name="e_fr_energy">     -7.66552700 </i>
    <i name="e_wo_entrp">     -7.66536252 </i>
    <i name="e_0_energy">     -7.66544476 </i>
   </energy>
  </scstep>
  <structure>
   <crystal>
    <varray name="basis" >
     <v>       0.00000000       3.02920000       3.02920000 </v>
     <v>       3.02920000       0.00000000       3.02920000 </v>
     <v>       3.02920000       3.02920000       0.00000000 </v>
    </varray>
    <i name="volume">     55.59219731 </i>
    <varray name="rec_basis" >
     <v>      -0.16506008       0.16506008       0.16506008 </v>
     <v>       0.16506008      -0.16506008       0.16506008 </v>
     <v>       0.16506008       0.16506008      -0.16506008 </v>
    </varray>
   </crystal>
   <varray name="positions" >
    <v>       0.00000000       0.00000000       0.00000000 </v>
    <v>       0.75000000       0.75000000       0.75000000 </v>
   </varray>
  </structure>
  <varray name="forces" >
   <v>      -0.00000000       0.00000000      -0.00000000 </v>
   <v>       0.00000000      -0.00000000       0.00000000 </v>
  </varray>
  <varray name="stress" >
   <v>      44.91472539      -0.00000000       0.00000000 </v>
   <v>      -0.00000000      44.91472539       0.00000000 </v>
   <v>       0.00000000       0.00000000      44.91472539 </v>
  </varray>
  <energy>
   <i name="e_fr_energy">     -7.66552700 </i>
   <i name="e_wo_entrp">     -7.66544476 </i>
   <i name="e_0_energy">     -0.00016449 </i>
  </energy>
  <time name="totalsc">   41.23   41.79</time>
  <eigenvalues>
   <array>
    <dimension dim="1">band</dimension>
    <dimension dim="2">kpoint</dimension>
    <dimension dim="3">spin</dimension>
    <field>eigene</field>
    <field>occ</field>
    <set>
     <set comment="spin 1">
      <set comment="kpoint 1">
       <r>   -8.5431    1.0000 </r>
       <r>   -8.5431    1.0000 </r>
       <r>    3.0249    1.0000 </r>
       <r>    3.0249    1.0000 </r>
       <r>    3.0938    1.0000 </r>
       <r>    3.0938    1.0000 </r>
       <r>    3.3779    0.5000 </r>
       <r>    3.3779    0.5000 </r>
       <r>    3.3779    0.5000 </r>
       <r>    3.3779    0.5000 </r>
       <r>    6.9046    0.0000 </r>
       <r>    6.9046    0.0000 </r>
       <r>    7.3543    0.0000 </r>
       <r>    7.3543    0.0000 </r>
       <r>    7.3543    0.0000 </r>
       <r>    7.3543    0.0000 </r>
       <r>   10.7919    0.0000 </r>
       <r>   10.7919    0.0000 </r>
       <r>   12.7741    0.0000 </r>
       <r>   12.7741    0.0000 </r>
       <r>   12.7741    0.0000 </r>
      </set>
      <set comment="kpoint 2">
       <r>   -8.3644    1.0000 </r>
       <r>   -8.3644    1.0000 </r>
       <r>    1.1154    1.0000 </r>
       <r>    1.1154    1.0000 </r>
       <r>    2.8986    1.0000 </r>
       <r>    2.8986    1.0000 </r>
       <r>    3.1369    1.0000 </r>
       <r>    3.1440    1.0000 </r>
       <r>    4.4638    0.0000 </r>
       <r>    4.4638    0.0000 </r>
       <r>    7.2937    0.0000 </r>
       <r>    7.2937    0.0000 </r>
       <r>    7.5543    0.0000 </r>
       <r>    7.5543    0.0000 </r>
       <r>    7.6961    0.0000 </r>
       <r>    7.6969    0.0000 </r>
       <r>   11.7570    0.0000 </r>
       <r>   11.7570    0.0000 </r>
       <r>   11.8461    0.0000 </r>
       <r>   11.8819    0.0000 </r>
       <r>   11.8819    0.0000 </r>
      </set>
      <set comment="kpoint 3">
       <r>   -7.8854    1.0000 </r>
       <r>   -7.8854    1.0000 </r>
       <r>   -0.8882    1.0000 </r>
       <r>   -0.8882    1.0000 </r>
       <r>    2.4689    1.0000 </r>
       <r>    2.4689    1.0000 </r>
       <r>    2.7144    1.0000 </r>
       <r>    2.7216    1.0000 </r>
       <r>    4.4813    0.0000 </r>
       <r>    4.4813    0.0000 </r>
       <r>    7.8488    0.0000 </r>
       <r>    7.8488    0.0000 </r>
       <r>    8.0882    0.0000 </r>
       <r>    8.0915    0.0000 </r>
       <r>    8.8609    0.0000 </r>
       <r>    8.8609    0.0000 </r>
       <r>   11.4920    0.0000 </r>
       <r>   11.4920    0.0000 </r>
       <r>   11.8862    0.0000 </r>
       <r>   11.8863    0.0000 </r>
       <r>   11.8957    0.0000 </r>
      </set>
      <set comment="kpoint 4">
       <r>   -7.3694    1.0000 </r>
       <r>   -7.3694    1.0000 </r>
       <r>   -2.2377    1.0000 </r>
       <r>   -2.2377    1.0000 </r>
       <r>    2.1926    1.0000 </r>
       <r>    2.1926    1.0000 </r>
       <r>    2.4443    1.0000 </r>
       <r>    2.4471    1.0000 </r>
       <r>    4.2800    0.0000 </r>
       <r>    4.2800    0.0000 </r>
       <r>    7.8888    0.0000 </r>
       <r>    7.8888    0.0000 </r>
       <r>    8.0664    0.0000 </r>
       <r>    8.0670    0.0000 </r>
       <r>   10.0370    0.0000 </r>
       <r>   10.0370    0.0000 </r>
       <r>   11.8817    0.0000 </r>
       <r>   11.8817    0.0000 </r>
       <r>   13.2637    0.0000 </r>
       <r>   13.2641    0.0000 </r>
       <r>   13.3562    0.0000 </r>
      </set>
      <set comment="kpoint 5">
       <r>   -7.3694    1.0000 </r>
       <r>   -7.3694    1.0000 </r>
       <r>   -2.2377    1.0000 </r>
       <r>   -2.2377    1.0000 </r>
       <r>    2.1926    1.0000 </r>
       <r>    2.1926    1.0000 </r>
       <r>    2.4443    1.0000 </r>
       <r>    2.4471    1.0000 </r>
       <r>    4.2800    0.0000 </r>
       <r>    4.2800    0.0000 </r>
       <r>    7.8888    0.0000 </r>
       <r>    7.8888    0.0000 </r>
       <r>    8.0664    0.0000 </r>
       <r>    8.0670    0.0000 </r>
       <r>   10.0370    0.0000 </r>
       <r>   10.0370    0.0000 </r>
       <r>   11.8817    0.0000 </r>
       <r>   11.8817    0.0000 </r>
       <r>   13.2637    0.0000 </r>
       <r>   13.2638    0.0000 </r>
       <r>   13.3590    0.0000 </r>
      </set>
      <set comment="kpoint 6">
       <r>   -7.8854    1.0000 </r>
       <r>   -7.8854    1.0000 </r>
       <r>   -0.8882    1.0000 </r>
       <r>   -0.8882    1.0000 </r>
       <r>    2.4689    1.0000 </r>
       <r>    2.4689    1.0000 </r>
       <r>    2.7144    1.0000 </r>
       <r>    2.7216    1.0000 </r>
       <r>    4.4813    0.0000 </r>
       <r>    4.4813    0.0000 </r>
       <r>    7.8488    0.0000 </r>
       <r>    7.8488    0.0000 </r>
       <r>    8.0882    0.0000 </r>
       <r>    8.0915    0.0000 </r>
       <r>    8.8609    0.0000 </r>
       <r>    8.8609    0.0000 </r>
       <r>   11.4920    0.0000 </r>
       <r>   11.4920    0.0000 </r>
       <r>   11.8862    0.0000 </r>
       <r>   11.8863    0.0000 </r>
       <r>   11.8956    0.0000 </r>
      </set>
      <set comment="kpoint 7">
       <r>   -8.3644    1.0000 </r>
       <r>   -8.3644    1.0000 </r>
       <r>    1.1154    1.0000 </r>
       <r>    1.1154    1.0000 </r>
       <r>    2.8986    1.0000 </r>
       <r>    2.8986    1.0000 </r>
       <r>    3.1369    1.0000 </r>
       <r>    3.1440    1.0000 </r>
       <r>    4.4638    0.0000 </r>
       <r>    4.4638    0.0000 </r>
       <r>    7.2937    0.0000 </r>
       <r>    7.2937    0.0000 </r>
       <r>    7.5543    0.0000 </r>
       <r>    7.5543    0.0000 </r>
       <r>    7.6961    0.0000 </r>
       <r>    7.6969    0.0000 </r>
       <r>   11.7570    0.0000 </r>
       <r>   11.7570    0.0000 </r>
       <r>   11.8460    0.0000 </r>
       <r>   11.8819    0.0000 </r>
       <r>   11.8819    0.0000 </r>
      </set>
      <set comment="kpoint 8">
       <r>   -8.3041    1.0000 </r>
       <r>   -8.3041    1.0000 </r>
       <r>    1.0501    1.0000 </r>
       <r>    1.0501    1.0000 </r>
       <r>    2.5352    1.0000 </r>
       <r>    2.5352    1.0000 </r>
       <r>    2.6804    1.0000 </r>
       <r>    2.6804    1.0000 </r>
       <r>    5.2346    0.0000 </r>
       <r>    5.2346    0.0000 </r>
       <r>    6.3651    0.0000 </r>
       <r>    6.3651    0.0000 </r>
       <r>    8.0604    0.0000 </r>
       <r>    8.0604    0.0000 </r>
       <r>    8.2635    0.0000 </r>
       <r>    8.2635    0.0000 </r>
       <r>   10.6148    0.0000 </r>
       <r>   10.6148    0.0000 </r>
       <r>   12.3011    0.0000 </r>
       <r>   12.3011    0.0000 </r>
       <r>   12.9936    0.0000 </r>
      </set>
      <set comment="kpoint 9">
       <r>   -7.9213    1.0000 </r>
       <r>   -7.9189    1.0000 </r>
       <r>   -0.4406    1.0000 </r>
       <r>   -0.4372    1.0000 </r>
       <r>    1.9975    1.0000 </r>
       <r>    2.0200    1.0000 </r>
       <r>    2.1909    1.0000 </r>
       <r>    2.1949    1.0000 </r>
       <r>    5.5962    0.0000 </r>
       <r>    5.5972    0.0000 </r>
       <r>    6.6160    0.0000 </r>
       <r>    6.6561    0.0000 </r>
       <r>    8.5954    0.0000 </r>
       <r>    8.6215    0.0000 </r>
       <r>    8.8336    0.0000 </r>
       <r>    8.8484    0.0000 </r>
       <r>   10.7385    0.0000 </r>
       <r>   10.7469    0.0000 </r>
       <r>   12.8884    0.0000 </r>
       <r>   12.9237    0.0000 </r>
       <r>   13.0255    0.0000 </r>
      </set>
      <set comment="kpoint 10">
       <r>   -7.3899    1.0000 </r>
       <r>   -7.3823    1.0000 </r>
       <r>   -1.8889    1.0000 </r>
       <r>   -1.8718    1.0000 </r>
       <r>    1.4328    1.0000 </r>
       <r>    1.4534    1.0000 </r>
       <r>    1.9547    1.0000 </r>
       <r>    1.9565    1.0000 </r>
       <r>    5.3988    0.0000 </r>
       <r>    5.4053    0.0000 </r>
       <r>    7.4073    0.0000 </r>
       <r>    7.4341    0.0000 </r>
       <r>    8.7849    0.0000 </r>
       <r>    8.7892    0.0000 </r>
       <r>    9.2142    0.0000 </r>
       <r>    9.2761    0.0000 </r>
       <r>   11.9323    0.0000 </r>
       <r>   11.9884    0.0000 </r>
       <r>   13.1487    0.0000 </r>
       <r>   13.1569    0.0000 </r>
       <r>   13.9312    0.0000 </r>
      </set>
      <set comment="kpoint 11">
       <r>   -7.1795    1.0000 </r>
       <r>   -7.1684    1.0000 </r>
       <r>   -2.3476    1.0000 </r>
       <r>   -2.3230    1.0000 </r>
       <r>    1.1151    1.0000 </r>
       <r>    1.1281    1.0000 </r>
       <r>    2.0759    1.0000 </r>
       <r>    2.0809    1.0000 </r>
       <r>    5.3337    0.0000 </r>
       <r>    5.3364    0.0000 </r>
       <r>    7.5951    0.0000 </r>
       <r>    7.6204    0.0000 </r>
       <r>    8.5092    0.0000 </r>
       <r>    8.5101    0.0000 </r>
       <r>   10.2842    0.0000 </r>
       <r>   10.3239    0.0000 </r>
       <r>   12.1987    0.0000 </r>
       <r>   12.3381    0.0000 </r>
       <r>   13.0249    0.0000 </r>
       <r>   13.0514    0.0000 </r>
       <r>   13.2009    0.0000 </r>
      </set>
      <set comment="kpoint 12">
       <r>   -7.5678    1.0000 </r>
       <r>   -7.5609    1.0000 </r>
       <r>   -1.4683    1.0000 </r>
       <r>   -1.4497    1.0000 </r>
       <r>    1.2104    1.0000 </r>
       <r>    1.2214    1.0000 </r>
       <r>    2.4799    1.0000 </r>
       <r>    2.4885    1.0000 </r>
       <r>    5.4291    0.0000 </r>
       <r>    5.4440    0.0000 </r>
       <r>    7.8624    0.0000 </r>
       <r>    7.8799    0.0000 </r>
       <r>    8.2322    0.0000 </r>
       <r>    8.2367    0.0000 </r>
       <r>    8.9708    0.0000 </r>
       <r>    8.9831    0.0000 </r>
       <r>   11.3524    0.0000 </r>
       <r>   11.3821    0.0000 </r>
       <r>   12.5040    0.0000 </r>
       <r>   12.5693    0.0000 </r>
       <r>   13.9445    0.0000 </r>
      </set>
      <set comment="kpoint 13">
       <r>   -8.0834    1.0000 </r>
       <r>   -8.0812    1.0000 </r>
       <r>    0.0144    1.0000 </r>
       <r>    0.0183    1.0000 </r>
       <r>    1.8887    1.0000 </r>
       <r>    1.9069    1.0000 </r>
       <r>    2.9407    1.0000 </r>
       <r>    2.9520    1.0000 </r>
       <r>    5.2589    0.0000 </r>
       <r>    5.2755    0.0000 </r>
       <r>    7.2772    0.0000 </r>
       <r>    7.4215    0.0000 </r>
       <r>    7.7085    0.0000 </r>
       <r>    7.7467    0.0000 </r>
       <r>    8.4072    0.0000 </r>
       <r>    8.4952    0.0000 </r>
       <r>   10.9984    0.0000 </r>
       <r>   11.0307    0.0000 </r>
       <r>   12.0069    0.0000 </r>
       <r>   12.0127    0.0000 </r>
       <r>   12.9481    0.0000 </r>
      </set>
      <set comment="kpoint 14">
       <r>   -7.6526    1.0000 </r>
       <r>   -7.6526    1.0000 </r>
       <r>   -0.8850    1.0000 </r>
       <r>   -0.8850    1.0000 </r>
       <r>    1.5916    1.0000 </r>
       <r>    1.5916    1.0000 </r>
       <r>    1.6571    1.0000 </r>
       <r>    1.6571    1.0000 </r>
       <r>    5.3568    0.0000 </r>
       <r>    5.3568    0.0000 </r>
       <r>    6.0427    0.0000 </r>
       <r>    6.0427    0.0000 </r>
       <r>    9.9397    0.0000 </r>
       <r>    9.9397    0.0000 </r>
       <r>   10.0920    0.0000 </r>
       <r>   10.0920    0.0000 </r>
       <r>   10.2036    0.0000 </r>
       <r>   10.2036    0.0000 </r>
       <r>   13.6325    0.0000 </r>
       <r>   13.6325    0.0000 </r>
       <r>   14.9354    0.0000 </r>
      </set>
      <set comment="kpoint 15">
       <r>   -7.2051    1.0000 </r>
       <r>   -7.1967    1.0000 </r>
       <r>   -1.8245    1.0000 </r>
       <r>   -1.8059    1.0000 </r>
       <r>    0.8844    1.0000 </r>
       <r>    0.9030    1.0000 </r>
       <r>    1.3791    1.0000 </r>
       <r>    1.3795    1.0000 </r>
       <r>    5.4154    0.0000 </r>
       <r>    5.4401    0.0000 </r>
       <r>    6.4012    0.0000 </r>
       <r>    6.4236    0.0000 </r>
       <r>    9.5582    0.0000 </r>
       <r>    9.6254    0.0000 </r>
       <r>   10.4508    0.0000 </r>
       <r>   10.4695    0.0000 </r>
       <r>   12.2342    0.0000 </r>
       <r>   12.2669    0.0000 </r>
       <r>   14.4106    0.0000 </r>
       <r>   14.4269    0.0000 </r>
       <r>   15.0148    0.0000 </r>
      </set>
      <set comment="kpoint 16">
       <r>   -6.9173    1.0000 </r>
       <r>   -6.8985    1.0000 </r>
       <r>   -2.3213    1.0000 </r>
       <r>   -2.2761    1.0000 </r>
       <r>    0.1535    1.0000 </r>
       <r>    0.1595    1.0000 </r>
       <r>    1.5006    1.0000 </r>
       <r>    1.5036    1.0000 </r>
       <r>    5.5463    0.0000 </r>
       <r>    5.5488    0.0000 </r>
       <r>    7.8471    0.0000 </r>
       <r>    7.9359    0.0000 </r>
       <r>    9.5420    0.0000 </r>
       <r>    9.7113    0.0000 </r>
       <r>   10.0212    0.0000 </r>
       <r>   10.0425    0.0000 </r>
       <r>   11.5512    0.0000 </r>
       <r>   11.6831    0.0000 </r>
       <r>   13.2236    0.0000 </r>
       <r>   13.2581    0.0000 </r>
       <r>   15.1749    0.0000 </r>
      </set>
      <set comment="kpoint 17">
       <r>   -7.1218    1.0000 </r>
       <r>   -7.1052    1.0000 </r>
       <r>   -2.0219    1.0000 </r>
       <r>   -1.9753    1.0000 </r>
       <r>    0.1338    1.0000 </r>
       <r>    0.1352    1.0000 </r>
       <r>    1.9486    1.0000 </r>
       <r>    1.9545    1.0000 </r>
       <r>    5.8232    0.0000 </r>
       <r>    5.8480    0.0000 </r>
       <r>    8.2909    0.0000 </r>
       <r>    8.4151    0.0000 </r>
       <r>    9.0908    0.0000 </r>
       <r>    9.2168    0.0000 </r>
       <r>    9.2479    0.0000 </r>
       <r>    9.3025    0.0000 </r>
       <r>   11.6663    0.0000 </r>
       <r>   11.6867    0.0000 </r>
       <r>   11.8035    0.0000 </r>
       <r>   11.9439    0.0000 </r>
       <r>   15.3970    0.0000 </r>
      </set>
      <set comment="kpoint 18">
       <r>   -7.5678    1.0000 </r>
       <r>   -7.5609    1.0000 </r>
       <r>   -1.4683    1.0000 </r>
       <r>   -1.4497    1.0000 </r>
       <r>    1.2104    1.0000 </r>
       <r>    1.2214    1.0000 </r>
       <r>    2.4799    1.0000 </r>
       <r>    2.4885    1.0000 </r>
       <r>    5.4291    0.0000 </r>
       <r>    5.4440    0.0000 </r>
       <r>    7.8624    0.0000 </r>
       <r>    7.8799    0.0000 </r>
       <r>    8.2322    0.0000 </r>
       <r>    8.2367    0.0000 </r>
       <r>    8.9708    0.0000 </r>
       <r>    8.9831    0.0000 </r>
       <r>   11.3524    0.0000 </r>
       <r>   11.3821    0.0000 </r>
       <r>   12.5040    0.0000 </r>
       <r>   12.5693    0.0000 </r>
       <r>   13.9432    0.0000 </r>
      </set>
      <set comment="kpoint 19">
       <r>   -6.9128    1.0000 </r>
       <r>   -6.9128    1.0000 </r>
       <r>   -2.2921    1.0000 </r>
       <r>   -2.2921    1.0000 </r>
       <r>    1.0306    1.0000 </r>
       <r>    1.0306    1.0000 </r>
       <r>    1.0512    1.0000 </r>
       <r>    1.0512    1.0000 </r>
       <r>    4.8837    0.0000 </r>
       <r>    4.8837    0.0000 </r>
       <r>    5.4790    0.0000 </r>
       <r>    5.4790    0.0000 </r>
       <r>   11.8299    0.0000 </r>
       <r>   11.8299    0.0000 </r>
       <r>   11.9853    0.0000 </r>
       <r>   11.9853    0.0000 </r>
       <r>   12.1276    0.0000 </r>
       <r>   12.1276    0.0000 </r>
       <r>   14.5222    0.0000 </r>
       <r>   14.5222    0.0000 </r>
       <r>   15.6832    0.0000 </r>
      </set>
      <set comment="kpoint 20">
       <r>   -6.7737    1.0000 </r>
       <r>   -6.7596    1.0000 </r>
       <r>   -2.4810    1.0000 </r>
       <r>   -2.4515    1.0000 </r>
       <r>    0.4531    1.0000 </r>
       <r>    0.4665    1.0000 </r>
       <r>    1.0909    1.0000 </r>
       <r>    1.0915    1.0000 </r>
       <r>    5.1371    0.0000 </r>
       <r>    5.1608    0.0000 </r>
       <r>    6.1600    0.0000 </r>
       <r>    6.1799    0.0000 </r>
       <r>   11.3195    0.0000 </r>
       <r>   11.3214    0.0000 </r>
       <r>   11.6422    0.0000 </r>
       <r>   11.6876    0.0000 </r>
       <r>   11.9535    0.0000 </r>
       <r>   12.1934    0.0000 </r>
       <r>   14.0827    0.0000 </r>
       <r>   14.1144    0.0000 </r>
       <r>   15.3355    0.0000 </r>
      </set>
      <set comment="kpoint 21">
       <r>   -6.9173    1.0000 </r>
       <r>   -6.8985    1.0000 </r>
       <r>   -2.3213    1.0000 </r>
       <r>   -2.2761    1.0000 </r>
       <r>    0.1535    1.0000 </r>
       <r>    0.1595    1.0000 </r>
       <r>    1.5006    1.0000 </r>
       <r>    1.5036    1.0000 </r>
       <r>    5.5463    0.0000 </r>
       <r>    5.5488    0.0000 </r>
       <r>    7.8471    0.0000 </r>
       <r>    7.9359    0.0000 </r>
       <r>    9.5420    0.0000 </r>
       <r>    9.7113    0.0000 </r>
       <r>   10.0212    0.0000 </r>
       <r>   10.0425    0.0000 </r>
       <r>   11.5512    0.0000 </r>
       <r>   11.6831    0.0000 </r>
       <r>   13.2236    0.0000 </r>
       <r>   13.2581    0.0000 </r>
       <r>   15.1740    0.0000 </r>
      </set>
      <set comment="kpoint 22">
       <r>   -7.1795    1.0000 </r>
       <r>   -7.1684    1.0000 </r>
       <r>   -2.3476    1.0000 </r>
       <r>   -2.3230    1.0000 </r>
       <r>    1.1151    1.0000 </r>
       <r>    1.1281    1.0000 </r>
       <r>    2.0759    1.0000 </r>
       <r>    2.0809    1.0000 </r>
       <r>    5.3337    0.0000 </r>
       <r>    5.3364    0.0000 </r>
       <r>    7.5951    0.0000 </r>
       <r>    7.6204    0.0000 </r>
       <r>    8.5092    0.0000 </r>
       <r>    8.5101    0.0000 </r>
       <r>   10.2842    0.0000 </r>
       <r>   10.3239    0.0000 </r>
       <r>   12.1987    0.0000 </r>
       <r>   12.3381    0.0000 </r>
       <r>   13.0252    0.0000 </r>
       <r>   13.0512    0.0000 </r>
       <r>   13.1998    0.0000 </r>
      </set>
      <set comment="kpoint 23">
       <r>   -7.2051    1.0000 </r>
       <r>   -7.1967    1.0000 </r>
       <r>   -1.8245    1.0000 </r>
       <r>   -1.8059    1.0000 </r>
       <r>    0.8844    1.0000 </r>
       <r>    0.9030    1.0000 </r>
       <r>    1.3791    1.0000 </r>
       <r>    1.3795    1.0000 </r>
       <r>    5.4154    0.0000 </r>
       <r>    5.4401    0.0000 </r>
       <r>    6.4012    0.0000 </r>
       <r>    6.4236    0.0000 </r>
       <r>    9.5582    0.0000 </r>
       <r>    9.6254    0.0000 </r>
       <r>   10.4508    0.0000 </r>
       <r>   10.4695    0.0000 </r>
       <r>   12.2342    0.0000 </r>
       <r>   12.2669    0.0000 </r>
       <r>   14.4106    0.0000 </r>
       <r>   14.4270    0.0000 </r>
       <r>   14.9965    0.0000 </r>
      </set>
      <set comment="kpoint 24">
       <r>   -7.3899    1.0000 </r>
       <r>   -7.3823    1.0000 </r>
       <r>   -1.8889    1.0000 </r>
       <r>   -1.8718    1.0000 </r>
       <r>    1.4328    1.0000 </r>
       <r>    1.4534    1.0000 </r>
       <r>    1.9547    1.0000 </r>
       <r>    1.9565    1.0000 </r>
       <r>    5.3988    0.0000 </r>
       <r>    5.4053    0.0000 </r>
       <r>    7.4073    0.0000 </r>
       <r>    7.4341    0.0000 </r>
       <r>    8.7849    0.0000 </r>
       <r>    8.7892    0.0000 </r>
       <r>    9.2142    0.0000 </r>
       <r>    9.2761    0.0000 </r>
       <r>   11.9323    0.0000 </r>
       <r>   11.9884    0.0000 </r>
       <r>   13.1487    0.0000 </r>
       <r>   13.1569    0.0000 </r>
       <r>   13.9324    0.0000 </r>
      </set>
      <set comment="kpoint 25">
       <r>   -7.9213    1.0000 </r>
       <r>   -7.9189    1.0000 </r>
       <r>   -0.4406    1.0000 </r>
       <r>   -0.4372    1.0000 </r>
       <r>    1.9975    1.0000 </r>
       <r>    2.0200    1.0000 </r>
       <r>    2.1909    1.0000 </r>
       <r>    2.1949    1.0000 </r>
       <r>    5.5962    0.0000 </r>
       <r>    5.5972    0.0000 </r>
       <r>    6.6160    0.0000 </r>
       <r>    6.6561    0.0000 </r>
       <r>    8.5954    0.0000 </r>
       <r>    8.6215    0.0000 </r>
       <r>    8.8336    0.0000 </r>
       <r>    8.8484    0.0000 </r>
       <r>   10.7385    0.0000 </r>
       <r>   10.7469    0.0000 </r>
       <r>   12.8891    0.0000 </r>
       <r>   12.9256    0.0000 </r>
       <r>   13.0295    0.0000 </r>
      </set>
      <set comment="kpoint 26">
       <r>   -7.4971    1.0000 </r>
       <r>   -7.4894    1.0000 </r>
       <r>   -1.3430    1.0000 </r>
       <r>   -1.3221    1.0000 </r>
       <r>    0.9404    1.0000 </r>
       <r>    0.9485    1.0000 </r>
       <r>    1.9047    1.0000 </r>
       <r>    1.9287    1.0000 </r>
       <r>    6.2868    0.0000 </r>
       <r>    6.3551    0.0000 </r>
       <r>    6.5794    0.0000 </r>
       <r>    6.6820    0.0000 </r>
       <r>    8.2504    0.0000 </r>
       <r>    8.3587    0.0000 </r>
       <r>    9.7409    0.0000 </r>
       <r>    9.8756    0.0000 </r>
       <r>   11.2445    0.0000 </r>
       <r>   11.2897    0.0000 </r>
       <r>   13.8104    0.0000 </r>
       <r>   13.8974    0.0000 </r>
       <r>   14.4410    0.0000 </r>
      </set>
      <set comment="kpoint 27">
       <r>   -7.0592    1.0000 </r>
       <r>   -7.0428    1.0000 </r>
       <r>   -2.1698    1.0000 </r>
       <r>   -2.1296    1.0000 </r>
       <r>    0.4078    1.0000 </r>
       <r>    0.4140    1.0000 </r>
       <r>    1.5081    1.0000 </r>
       <r>    1.5337    1.0000 </r>
       <r>    6.3361    0.0000 </r>
       <r>    6.3587    0.0000 </r>
       <r>    7.3139    0.0000 </r>
       <r>    7.3809    0.0000 </r>
       <r>    8.5948    0.0000 </r>
       <r>    8.7126    0.0000 </r>
       <r>   10.2500    0.0000 </r>
       <r>   10.4084    0.0000 </r>
       <r>   11.4624    0.0000 </r>
       <r>   11.5922    0.0000 </r>
       <r>   13.3787    0.0000 </r>
       <r>   13.4934    0.0000 </r>
       <r>   14.5432    0.0000 </r>
      </set>
      <set comment="kpoint 28">
       <r>   -7.0592    1.0000 </r>
       <r>   -7.0428    1.0000 </r>
       <r>   -2.1698    1.0000 </r>
       <r>   -2.1296    1.0000 </r>
       <r>    0.4078    1.0000 </r>
       <r>    0.4140    1.0000 </r>
       <r>    1.5081    1.0000 </r>
       <r>    1.5337    1.0000 </r>
       <r>    6.3361    0.0000 </r>
       <r>    6.3587    0.0000 </r>
       <r>    7.3139    0.0000 </r>
       <r>    7.3809    0.0000 </r>
       <r>    8.5948    0.0000 </r>
       <r>    8.7126    0.0000 </r>
       <r>   10.2500    0.0000 </r>
       <r>   10.4084    0.0000 </r>
       <r>   11.4624    0.0000 </r>
       <r>   11.5922    0.0000 </r>
       <r>   13.3787    0.0000 </r>
       <r>   13.4934    0.0000 </r>
       <r>   14.5262    0.0000 </r>
      </set>
      <set comment="kpoint 29">
       <r>   -6.8734    1.0000 </r>
       <r>   -6.8566    1.0000 </r>
       <r>   -2.2978    1.0000 </r>
       <r>   -2.2606    1.0000 </r>
       <r>    0.5090    1.0000 </r>
       <r>    0.5136    1.0000 </r>
       <r>    0.8471    1.0000 </r>
       <r>    0.8767    1.0000 </r>
       <r>    6.0394    0.0000 </r>
       <r>    6.1178    0.0000 </r>
       <r>    6.4319    0.0000 </r>
       <r>    6.5095    0.0000 </r>
       <r>    9.3597    0.0000 </r>
       <r>    9.4855    0.0000 </r>
       <r>   11.2617    0.0000 </r>
       <r>   11.3632    0.0000 </r>
       <r>   12.2153    0.0000 </r>
       <r>   12.3735    0.0000 </r>
       <r>   14.2020    0.0000 </r>
       <r>   14.2562    0.0000 </r>
       <r>   15.3228    0.0000 </r>
      </set>
      <set comment="kpoint 30">
       <r>   -6.8017    1.0000 </r>
       <r>   -6.7786    1.0000 </r>
       <r>   -2.3614    1.0000 </r>
       <r>   -2.3065    1.0000 </r>
       <r>    0.0603    1.0000 </r>
       <r>    0.0675    1.0000 </r>
       <r>    0.9215    1.0000 </r>
       <r>    0.9485    1.0000 </r>
       <r>    6.4848    0.0000 </r>
       <r>    6.4890    0.0000 </r>
       <r>    7.8581    0.0000 </r>
       <r>    7.9612    0.0000 </r>
       <r>    8.7292    0.0000 </r>
       <r>    8.8824    0.0000 </r>
       <r>    9.7888    0.0000 </r>
       <r>    9.8674    0.0000 </r>
       <r>   12.0499    0.0000 </r>
       <r>   12.2028    0.0000 </r>
       <r>   13.6601    0.0000 </r>
       <r>   13.7060    0.0000 </r>
       <r>   15.5787    0.0000 </r>
      </set>
     </set>
    </set>
   </array>
  </eigenvalues>
  <separator name="orbital magnetization" >
   <v name="MAGDIPOLOUT">      0.00000000      0.00000000      0.00000000</v>
  </separator>
  <dos>
   <i name="efermi">      3.37790382 </i>
   <total>
    <array>
     <dimension dim="1">gridpoints</dimension>
     <dimension dim="2">spin</dimension>
     <field>energy</field>
     <field>total</field>
     <field>integrated</field>
     <set>
      <set comment="spin 1">
       <r>    -9.7544     0.0000     0.0000 </r>
       <r>    -9.6656     0.0000     0.0000 </r>
       <r>    -9.5767     0.0000     0.0000 </r>
       <r>    -9.4879     0.0000     0.0000 </r>
       <r>    -9.3991     0.0000     0.0000 </r>
       <r>    -9.3102     0.0000     0.0000 </r>
       <r>    -9.2214     0.0000     0.0000 </r>
       <r>    -9.1326     0.0000     0.0000 </r>
       <r>    -9.0438     0.0000     0.0000 </r>
       <r>    -8.9549     0.0000     0.0000 </r>
       <r>    -8.8661     0.0000     0.0000 </r>
       <r>    -8.7773     0.0000     0.0000 </r>
       <r>    -8.6884     0.0000     0.0000 </r>
       <r>    -8.5996     0.0036     0.0003 </r>
       <r>    -8.5108     0.0502     0.0048 </r>
       <r>    -8.4220     0.0391     0.0083 </r>
       <r>    -8.3331     0.4799     0.0509 </r>
       <r>    -8.2443     0.3937     0.0859 </r>
       <r>    -8.1555     0.0333     0.0888 </r>
       <r>    -8.0666     0.5136     0.1344 </r>
       <r>    -7.9778     0.3409     0.1647 </r>
       <r>    -7.8890     1.4363     0.2923 </r>
       <r>    -7.8001     0.5775     0.3436 </r>
       <r>    -7.7113     0.0238     0.3457 </r>
       <r>    -7.6225     0.3775     0.3793 </r>
       <r>    -7.5337     1.4686     0.5097 </r>
       <r>    -7.4448     1.6283     0.6543 </r>
       <r>    -7.3560     1.6530     0.8012 </r>
       <r>    -7.2672     0.5537     0.8504 </r>
       <r>    -7.1783     1.8469     1.0144 </r>
       <r>    -7.0895     2.2760     1.2166 </r>
       <r>    -7.0007     2.6614     1.4530 </r>
       <r>    -6.9118     1.3277     1.5710 </r>
       <r>    -6.8230     2.5976     1.8017 </r>
       <r>    -6.7342     1.9827     1.9778 </r>
       <r>    -6.6454     0.2493     2.0000 </r>
       <r>    -6.5565     0.0004     2.0000 </r>
       <r>    -6.4677     0.0000     2.0000 </r>
       <r>    -6.3789     0.0000     2.0000 </r>
       <r>    -6.2900     0.0000     2.0000 </r>
       <r>    -6.2012     0.0000     2.0000 </r>
       <r>    -6.1124     0.0000     2.0000 </r>
       <r>    -6.0236     0.0000     2.0000 </r>
       <r>    -5.9347     0.0000     2.0000 </r>
       <r>    -5.8459     0.0000     2.0000 </r>
       <r>    -5.7571     0.0000     2.0000 </r>
       <r>    -5.6682     0.0000     2.0000 </r>
       <r>    -5.5794     0.0000     2.0000 </r>
       <r>    -5.4906     0.0000     2.0000 </r>
       <r>    -5.4017     0.0000     2.0000 </r>
       <r>    -5.3129     0.0000     2.0000 </r>
       <r>    -5.2241     0.0000     2.0000 </r>
       <r>    -5.1353     0.0000     2.0000 </r>
       <r>    -5.0464     0.0000     2.0000 </r>
       <r>    -4.9576     0.0000     2.0000 </r>
       <r>    -4.8688     0.0000     2.0000 </r>
       <r>    -4.7799     0.0000     2.0000 </r>
       <r>    -4.6911     0.0000     2.0000 </r>
       <r>    -4.6023     0.0000     2.0000 </r>
       <r>    -4.5134     0.0000     2.0000 </r>
       <r>    -4.4246     0.0000     2.0000 </r>
       <r>    -4.3358     0.0000     2.0000 </r>
       <r>    -4.2470     0.0000     2.0000 </r>
       <r>    -4.1581     0.0000     2.0000 </r>
       <r>    -4.0693     0.0000     2.0000 </r>
       <r>    -3.9805     0.0000     2.0000 </r>
       <r>    -3.8916     0.0000     2.0000 </r>
       <r>    -3.8028     0.0000     2.0000 </r>
       <r>    -3.7140     0.0000     2.0000 </r>
       <r>    -3.6252     0.0000     2.0000 </r>
       <r>    -3.5363     0.0000     2.0000 </r>
       <r>    -3.4475     0.0000     2.0000 </r>
       <r>    -3.3587     0.0000     2.0000 </r>
       <r>    -3.2698     0.0000     2.0000 </r>
       <r>    -3.1810     0.0000     2.0000 </r>
       <r>    -3.0922     0.0000     2.0000 </r>
       <r>    -3.0033     0.0000     2.0000 </r>
       <r>    -2.9145     0.0000     2.0000 </r>
       <r>    -2.8257     0.0000     2.0000 </r>
       <r>    -2.7369     0.0000     2.0000 </r>
       <r>    -2.6480     0.0000     2.0000 </r>
       <r>    -2.5592     0.0058     2.0005 </r>
       <r>    -2.4704     0.3558     2.0321 </r>
       <r>    -2.3815     0.8696     2.1094 </r>
       <r>    -2.2927     3.8935     2.4552 </r>
       <r>    -2.2039     3.0200     2.7235 </r>
       <r>    -2.1150     2.3843     2.9353 </r>
       <r>    -2.0262     0.8346     3.0094 </r>
       <r>    -1.9374     0.6167     3.0642 </r>
       <r>    -1.8486     1.5258     3.1997 </r>
       <r>    -1.7597     1.4887     3.3320 </r>
       <r>    -1.6709     0.1026     3.3411 </r>
       <r>    -1.5821     0.0006     3.3412 </r>
       <r>    -1.4932     0.2742     3.3655 </r>
       <r>    -1.4044     1.2340     3.4751 </r>
       <r>    -1.3156     1.1333     3.5758 </r>
       <r>    -1.2267     0.5055     3.6207 </r>
       <r>    -1.1379     0.0031     3.6210 </r>
       <r>    -1.0491     0.0000     3.6210 </r>
       <r>    -0.9603     0.0174     3.6225 </r>
       <r>    -0.8714     0.5963     3.6755 </r>
       <r>    -0.7826     0.3038     3.7025 </r>
       <r>    -0.6938     0.0015     3.7026 </r>
       <r>    -0.6049     0.0000     3.7026 </r>
       <r>    -0.5161     0.0229     3.7047 </r>
       <r>    -0.4273     0.9669     3.7905 </r>
       <r>    -0.3385     0.5820     3.8422 </r>
       <r>    -0.2496     0.0036     3.8426 </r>
       <r>    -0.1608     0.0000     3.8426 </r>
       <r>    -0.0720     0.0051     3.8430 </r>
       <r>     0.0169     0.5397     3.8910 </r>
       <r>     0.1057     1.9083     4.0605 </r>
       <r>     0.1945     2.0138     4.2394 </r>
       <r>     0.2834     0.2596     4.2624 </r>
       <r>     0.3722     0.4396     4.3015 </r>
       <r>     0.4610     2.9896     4.5670 </r>
       <r>     0.5498     1.8620     4.7324 </r>
       <r>     0.6387     0.2223     4.7522 </r>
       <r>     0.7275     0.0006     4.7522 </r>
       <r>     0.8163     0.2139     4.7712 </r>
       <r>     0.9052     2.6900     5.0102 </r>
       <r>     0.9940     3.2741     5.3010 </r>
       <r>     1.0828     1.7696     5.4582 </r>
       <r>     1.1717     2.4261     5.6737 </r>
       <r>     1.2605     1.4056     5.7986 </r>
       <r>     1.3493     0.4877     5.8419 </r>
       <r>     1.4381     1.9815     6.0179 </r>
       <r>     1.5270     3.8166     6.3569 </r>
       <r>     1.6158     2.0840     6.5421 </r>
       <r>     1.7046     0.4264     6.5799 </r>
       <r>     1.7935     0.0378     6.5833 </r>
       <r>     1.8823     0.5946     6.6361 </r>
       <r>     1.9711     3.4947     6.9465 </r>
       <r>     2.0599     2.5491     7.1730 </r>
       <r>     2.1488     1.4231     7.2994 </r>
       <r>     2.2376     1.6975     7.4502 </r>
       <r>     2.3264     0.2163     7.4694 </r>
       <r>     2.4153     0.1779     7.4852 </r>
       <r>     2.5041     1.9580     7.6591 </r>
       <r>     2.5929     0.8643     7.7359 </r>
       <r>     2.6818     0.3030     7.7628 </r>
       <r>     2.7706     0.5967     7.8158 </r>
       <r>     2.8594     0.1147     7.8260 </r>
       <r>     2.9482     0.8186     7.8987 </r>
       <r>     3.0371     0.4598     7.9396 </r>
       <r>     3.1259     0.2566     7.9624 </r>
       <r>     3.2147     0.3485     7.9933 </r>
       <r>     3.3036     0.0119     7.9944 </r>
       <r>     3.3924     0.0842     8.0019 </r>
       <r>     3.4812     0.0445     8.0058 </r>
       <r>     3.5701     0.0002     8.0058 </r>
       <r>     3.6589     0.0000     8.0058 </r>
       <r>     3.7477     0.0000     8.0058 </r>
       <r>     3.8365     0.0000     8.0058 </r>
       <r>     3.9254     0.0000     8.0058 </r>
       <r>     4.0142     0.0000     8.0058 </r>
       <r>     4.1030     0.0000     8.0058 </r>
       <r>     4.1919     0.0033     8.0061 </r>
       <r>     4.2807     0.2631     8.0295 </r>
       <r>     4.3695     0.2582     8.0524 </r>
       <r>     4.4583     0.3665     8.0850 </r>
       <r>     4.5472     0.6631     8.1439 </r>
       <r>     4.6360     0.0212     8.1458 </r>
       <r>     4.7248     0.0000     8.1458 </r>
       <r>     4.8137     0.0094     8.1466 </r>
       <r>     4.9025     0.2673     8.1704 </r>
       <r>     4.9913     0.1167     8.1807 </r>
       <r>     5.0802     0.0260     8.1830 </r>
       <r>     5.1690     0.5440     8.2313 </r>
       <r>     5.2578     0.8474     8.3066 </r>
       <r>     5.3466     1.8102     8.4674 </r>
       <r>     5.4355     3.7337     8.7991 </r>
       <r>     5.5243     2.4732     9.0188 </r>
       <r>     5.6131     2.2192     9.2159 </r>
       <r>     5.7020     0.5538     9.2651 </r>
       <r>     5.7908     0.0937     9.2734 </r>
       <r>     5.8796     0.6013     9.3268 </r>
       <r>     5.9685     0.1194     9.3375 </r>
       <r>     6.0573     0.8166     9.4100 </r>
       <r>     6.1461     1.1632     9.5133 </r>
       <r>     6.2349     0.7821     9.5828 </r>
       <r>     6.3238     1.6793     9.7320 </r>
       <r>     6.4126     4.2633    10.1107 </r>
       <r>     6.5014     2.8522    10.3640 </r>
       <r>     6.5903     1.7117    10.5161 </r>
       <r>     6.6791     1.8076    10.6766 </r>
       <r>     6.7679     0.6470    10.7341 </r>
       <r>     6.8568     0.0123    10.7352 </r>
       <r>     6.9456     0.0518    10.7398 </r>
       <r>     7.0344     0.0081    10.7405 </r>
       <r>     7.1232     0.0000    10.7405 </r>
       <r>     7.2121     0.0215    10.7424 </r>
       <r>     7.3009     1.1676    10.8462 </r>
       <r>     7.3897     2.7296    11.0886 </r>
       <r>     7.4786     2.1354    11.2783 </r>
       <r>     7.5674     0.6781    11.3385 </r>
       <r>     7.6562     1.4787    11.4699 </r>
       <r>     7.7450     1.0677    11.5647 </r>
       <r>     7.8339     1.2268    11.6737 </r>
       <r>     7.9227     3.4060    11.9763 </r>
       <r>     8.0115     1.4458    12.1047 </r>
       <r>     8.1004     1.1053    12.2029 </r>
       <r>     8.1892     0.5392    12.2508 </r>
       <r>     8.2780     2.2316    12.4490 </r>
       <r>     8.3669     1.2643    12.5613 </r>
       <r>     8.4557     1.0996    12.6590 </r>
       <r>     8.5445     1.8079    12.8196 </r>
       <r>     8.6333     2.6481    13.0548 </r>
       <r>     8.7222     1.9357    13.2268 </r>
       <r>     8.8110     2.5734    13.4554 </r>
       <r>     8.8998     2.5408    13.6811 </r>
       <r>     8.9887     1.3624    13.8021 </r>
       <r>     9.0775     0.7224    13.8663 </r>
       <r>     9.1663     0.3563    13.8979 </r>
       <r>     9.2552     1.4158    14.0237 </r>
       <r>     9.3440     1.4319    14.1509 </r>
       <r>     9.4328     0.6384    14.2076 </r>
       <r>     9.5216     0.9700    14.2937 </r>
       <r>     9.6105     1.5447    14.4309 </r>
       <r>     9.6993     0.9703    14.5171 </r>
       <r>     9.7881     1.5219    14.6523 </r>
       <r>     9.8770     1.3609    14.7732 </r>
       <r>     9.9658     1.0485    14.8664 </r>
       <r>    10.0546     1.5989    15.0084 </r>
       <r>    10.1434     0.9115    15.0893 </r>
       <r>    10.2323     0.8683    15.1665 </r>
       <r>    10.3211     2.1282    15.3555 </r>
       <r>    10.4099     1.5023    15.4890 </r>
       <r>    10.4988     1.9707    15.6640 </r>
       <r>    10.5876     0.3240    15.6928 </r>
       <r>    10.6764     0.3407    15.7231 </r>
       <r>    10.7653     1.1423    15.8245 </r>
       <r>    10.8541     0.4615    15.8655 </r>
       <r>    10.9429     0.0295    15.8682 </r>
       <r>    11.0317     0.5020    15.9128 </r>
       <r>    11.1206     0.2581    15.9357 </r>
       <r>    11.2094     0.1933    15.9528 </r>
       <r>    11.2982     1.9755    16.1283 </r>
       <r>    11.3871     2.6729    16.3658 </r>
       <r>    11.4759     1.8761    16.5324 </r>
       <r>    11.5647     1.7483    16.6877 </r>
       <r>    11.6536     2.1295    16.8769 </r>
       <r>    11.7424     1.8547    17.0416 </r>
       <r>    11.8312     1.1303    17.1420 </r>
       <r>    11.9200     2.3599    17.3517 </r>
       <r>    12.0089     2.6853    17.5902 </r>
       <r>    12.0977     1.4695    17.7207 </r>
       <r>    12.1865     1.3197    17.8380 </r>
       <r>    12.2754     3.0404    18.1080 </r>
       <r>    12.3642     1.6545    18.2550 </r>
       <r>    12.4530     0.7230    18.3192 </r>
       <r>    12.5419     0.7987    18.3902 </r>
       <r>    12.6307     0.6949    18.4519 </r>
       <r>    12.7195     0.0387    18.4553 </r>
       <r>    12.8083     0.0855    18.4629 </r>
       <r>    12.8972     0.6776    18.5231 </r>
       <r>    12.9860     1.5160    18.6578 </r>
       <r>    13.0748     2.0293    18.8381 </r>
       <r>    13.1637     1.4467    18.9666 </r>
       <r>    13.2525     2.3364    19.1741 </r>
       <r>    13.3413     1.2921    19.2889 </r>
       <r>    13.4301     1.4776    19.4201 </r>
       <r>    13.5190     1.2681    19.5328 </r>
       <r>    13.6078     0.5208    19.5791 </r>
       <r>    13.6966     1.2098    19.6865 </r>
       <r>    13.7855     0.7877    19.7565 </r>
       <r>    13.8743     0.8423    19.8313 </r>
       <r>    13.9631     1.7253    19.9846 </r>
       <r>    14.0520     0.4932    20.0284 </r>
       <r>    14.1408     0.6218    20.0836 </r>
       <r>    14.2296     0.8705    20.1609 </r>
       <r>    14.3184     0.7544    20.2280 </r>
       <r>    14.4073     0.7535    20.2949 </r>
       <r>    14.4961     1.8816    20.4620 </r>
       <r>    14.5849     1.5772    20.6021 </r>
       <r>    14.6738     0.1465    20.6152 </r>
       <r>    14.7626     0.0001    20.6152 </r>
       <r>    14.8514     0.0017    20.6153 </r>
       <r>    14.9403     0.1363    20.6274 </r>
       <r>    15.0291     0.6403    20.6843 </r>
       <r>    15.1179     0.2487    20.7064 </r>
       <r>    15.2067     0.6035    20.7600 </r>
       <r>    15.2956     0.3674    20.7926 </r>
       <r>    15.3844     1.0331    20.8844 </r>
       <r>    15.4732     0.3117    20.9121 </r>
       <r>    15.5621     0.2566    20.9349 </r>
       <r>    15.6509     0.5555    20.9842 </r>
       <r>    15.7397     0.1667    20.9990 </r>
       <r>    15.8285     0.0108    21.0000 </r>
       <r>    15.9174     0.0000    21.0000 </r>
       <r>    16.0062     0.0000    21.0000 </r>
       <r>    16.0950     0.0000    21.0000 </r>
       <r>    16.1839     0.0000    21.0000 </r>
       <r>    16.2727     0.0000    21.0000 </r>
       <r>    16.3615     0.0000    21.0000 </r>
       <r>    16.4504     0.0000    21.0000 </r>
       <r>    16.5392     0.0000    21.0000 </r>
       <r>    16.6280     0.0000    21.0000 </r>
       <r>    16.7168     0.0000    21.0000 </r>
       <r>    16.8057     0.0000    21.0000 </r>
       <r>    16.8945     0.0000    21.0000 </r>
      </set>
      <set comment="spin 2">
       <r>    -9.7544     0.0000     0.0000 </r>
       <r>    -9.6656     0.0000     0.0000 </r>
       <r>    -9.5767     0.0000     0.0000 </r>
       <r>    -9.4879     0.0000     0.0000 </r>
       <r>    -9.3991     0.0000     0.0000 </r>
       <r>    -9.3102     0.0000     0.0000 </r>
       <r>    -9.2214     0.0000     0.0000 </r>
       <r>    -9.1326     0.0000     0.0000 </r>
       <r>    -9.0438     0.0000     0.0000 </r>
       <r>    -8.9549     0.0000     0.0000 </r>
       <r>    -8.8661     0.0000     0.0000 </r>
       <r>    -8.7773     0.0000     0.0000 </r>
       <r>    -8.6884     0.0000     0.0000 </r>
       <r>    -8.5996     0.0000     0.0000 </r>
       <r>    -8.5108     0.0000     0.0000 </r>
       <r>    -8.4220     0.0000     0.0000 </r>
       <r>    -8.3331     0.0000     0.0000 </r>
       <r>    -8.2443     0.0000     0.0000 </r>
       <r>    -8.1555     0.0000     0.0000 </r>
       <r>    -8.0666     0.0000     0.0000 </r>
       <r>    -7.9778     0.0000     0.0000 </r>
       <r>    -7.8890     0.0000     0.0000 </r>
       <r>    -7.8001     0.0000     0.0000 </r>
       <r>    -7.7113     0.0000     0.0000 </r>
       <r>    -7.6225     0.0000     0.0000 </r>
       <r>    -7.5337     0.0000     0.0000 </r>
       <r>    -7.4448     0.0000     0.0000 </r>
       <r>    -7.3560     0.0000     0.0000 </r>
       <r>    -7.2672     0.0000     0.0000 </r>
       <r>    -7.1783     0.0000     0.0000 </r>
       <r>    -7.0895     0.0000     0.0000 </r>
       <r>    -7.0007     0.0000     0.0000 </r>
       <r>    -6.9118     0.0000     0.0000 </r>
       <r>    -6.8230     0.0000     0.0000 </r>
       <r>    -6.7342     0.0000     0.0000 </r>
       <r>    -6.6454     0.0000     0.0000 </r>
       <r>    -6.5565     0.0000     0.0000 </r>
       <r>    -6.4677     0.0000     0.0000 </r>
       <r>    -6.3789     0.0000     0.0000 </r>
       <r>    -6.2900     0.0000     0.0000 </r>
       <r>    -6.2012     0.0000     0.0000 </r>
       <r>    -6.1124     0.0000     0.0000 </r>
       <r>    -6.0236     0.0000     0.0000 </r>
       <r>    -5.9347     0.0000     0.0000 </r>
       <r>    -5.8459     0.0000     0.0000 </r>
       <r>    -5.7571     0.0000     0.0000 </r>
       <r>    -5.6682     0.0000     0.0000 </r>
       <r>    -5.5794     0.0000     0.0000 </r>
       <r>    -5.4906     0.0000     0.0000 </r>
       <r>    -5.4017     0.0000     0.0000 </r>
       <r>    -5.3129     0.0000     0.0000 </r>
       <r>    -5.2241     0.0000     0.0000 </r>
       <r>    -5.1353     0.0000     0.0000 </r>
       <r>    -5.0464     0.0000     0.0000 </r>
       <r>    -4.9576     0.0000     0.0000 </r>
       <r>    -4.8688     0.0000     0.0000 </r>
       <r>    -4.7799     0.0000     0.0000 </r>
       <r>    -4.6911     0.0000     0.0000 </r>
       <r>    -4.6023     0.0000     0.0000 </r>
       <r>    -4.5134     0.0000     0.0000 </r>
       <r>    -4.4246     0.0000     0.0000 </r>
       <r>    -4.3358     0.0000     0.0000 </r>
       <r>    -4.2470     0.0000     0.0000 </r>
       <r>    -4.1581     0.0000     0.0000 </r>
       <r>    -4.0693     0.0000     0.0000 </r>
       <r>    -3.9805     0.0000     0.0000 </r>
       <r>    -3.8916     0.0000     0.0000 </r>
       <r>    -3.8028     0.0000     0.0000 </r>
       <r>    -3.7140     0.0000     0.0000 </r>
       <r>    -3.6252     0.0000     0.0000 </r>
       <r>    -3.5363     0.0000     0.0000 </r>
       <r>    -3.4475     0.0000     0.0000 </r>
       <r>    -3.3587     0.0000     0.0000 </r>
       <r>    -3.2698     0.0000     0.0000 </r>
       <r>    -3.1810     0.0000     0.0000 </r>
       <r>    -3.0922     0.0000     0.0000 </r>
       <r>    -3.0033     0.0000     0.0000 </r>
       <r>    -2.9145     0.0000     0.0000 </r>
       <r>    -2.8257     0.0000     0.0000 </r>
       <r>    -2.7369     0.0000     0.0000 </r>
       <r>    -2.6480     0.0000     0.0000 </r>
       <r>    -2.5592     0.0000     0.0000 </r>
       <r>    -2.4704     0.0000     0.0000 </r>
       <r>    -2.3815     0.0000     0.0000 </r>
       <r>    -2.2927     0.0000     0.0000 </r>
       <r>    -2.2039     0.0000     0.0000 </r>
       <r>    -2.1150     0.0000     0.0000 </r>
       <r>    -2.0262     0.0000     0.0000 </r>
       <r>    -1.9374     0.0000     0.0000 </r>
       <r>    -1.8486     0.0000     0.0000 </r>
       <r>    -1.7597     0.0000     0.0000 </r>
       <r>    -1.6709     0.0000     0.0000 </r>
       <r>    -1.5821     0.0000     0.0000 </r>
       <r>    -1.4932     0.0000     0.0000 </r>
       <r>    -1.4044     0.0000     0.0000 </r>
       <r>    -1.3156     0.0000     0.0000 </r>
       <r>    -1.2267     0.0000     0.0000 </r>
       <r>    -1.1379     0.0000     0.0000 </r>
       <r>    -1.0491     0.0000     0.0000 </r>
       <r>    -0.9603     0.0000     0.0000 </r>
       <r>    -0.8714     0.0000     0.0000 </r>
       <r>    -0.7826     0.0000     0.0000 </r>
       <r>    -0.6938     0.0000     0.0000 </r>
       <r>    -0.6049     0.0000     0.0000 </r>
       <r>    -0.5161     0.0000     0.0000 </r>
       <r>    -0.4273     0.0000     0.0000 </r>
       <r>    -0.3385     0.0000     0.0000 </r>
       <r>    -0.2496     0.0000     0.0000 </r>
       <r>    -0.1608     0.0000     0.0000 </r>
       <r>    -0.0720     0.0000     0.0000 </r>
       <r>     0.0169     0.0000     0.0000 </r>
       <r>     0.1057     0.0000     0.0000 </r>
       <r>     0.1945     0.0000     0.0000 </r>
       <r>     0.2834     0.0000     0.0000 </r>
       <r>     0.3722     0.0000     0.0000 </r>
       <r>     0.4610     0.0000     0.0000 </r>
       <r>     0.5498     0.0000     0.0000 </r>
       <r>     0.6387     0.0000     0.0000 </r>
       <r>     0.7275     0.0000     0.0000 </r>
       <r>     0.8163     0.0000     0.0000 </r>
       <r>     0.9052     0.0000     0.0000 </r>
       <r>     0.9940     0.0000     0.0000 </r>
       <r>     1.0828     0.0000     0.0000 </r>
       <r>     1.1717     0.0000     0.0000 </r>
       <r>     1.2605     0.0000     0.0000 </r>
       <r>     1.3493     0.0000     0.0000 </r>
       <r>     1.4381     0.0000     0.0000 </r>
       <r>     1.5270     0.0000     0.0000 </r>
       <r>     1.6158     0.0000     0.0000 </r>
       <r>     1.7046     0.0000     0.0000 </r>
       <r>     1.7935     0.0000     0.0000 </r>
       <r>     1.8823     0.0000     0.0000 </r>
       <r>     1.9711     0.0000     0.0000 </r>
       <r>     2.0599     0.0000     0.0000 </r>
       <r>     2.1488     0.0000     0.0000 </r>
       <r>     2.2376     0.0000     0.0000 </r>
       <r>     2.3264     0.0000     0.0000 </r>
       <r>     2.4153     0.0000     0.0000 </r>
       <r>     2.5041     0.0000     0.0000 </r>
       <r>     2.5929     0.0000     0.0000 </r>
       <r>     2.6818     0.0000     0.0000 </r>
       <r>     2.7706     0.0000     0.0000 </r>
       <r>     2.8594     0.0000     0.0000 </r>
       <r>     2.9482     0.0000     0.0000 </r>
       <r>     3.0371     0.0000     0.0000 </r>
       <r>     3.1259     0.0000     0.0000 </r>
       <r>     3.2147     0.0000     0.0000 </r>
       <r>     3.3036     0.0000     0.0000 </r>
       <r>     3.3924     0.0000     0.0000 </r>
       <r>     3.4812     0.0000     0.0000 </r>
       <r>     3.5701     0.0000     0.0000 </r>
       <r>     3.6589     0.0000     0.0000 </r>
       <r>     3.7477     0.0000     0.0000 </r>
       <r>     3.8365     0.0000     0.0000 </r>
       <r>     3.9254     0.0000     0.0000 </r>
       <r>     4.0142     0.0000     0.0000 </r>
       <r>     4.1030     0.0000     0.0000 </r>
       <r>     4.1919     0.0000     0.0000 </r>
       <r>     4.2807     0.0000     0.0000 </r>
       <r>     4.3695     0.0000     0.0000 </r>
       <r>     4.4583     0.0000     0.0000 </r>
       <r>     4.5472     0.0000     0.0000 </r>
       <r>     4.6360     0.0000     0.0000 </r>
       <r>     4.7248     0.0000     0.0000 </r>
       <r>     4.8137     0.0000     0.0000 </r>
       <r>     4.9025     0.0000     0.0000 </r>
       <r>     4.9913     0.0000     0.0000 </r>
       <r>     5.0802     0.0000     0.0000 </r>
       <r>     5.1690     0.0000     0.0000 </r>
       <r>     5.2578     0.0000     0.0000 </r>
       <r>     5.3466     0.0000     0.0000 </r>
       <r>     5.4355     0.0000     0.0000 </r>
       <r>     5.5243     0.0000     0.0000 </r>
       <r>     5.6131     0.0000     0.0000 </r>
       <r>     5.7020     0.0000     0.0000 </r>
       <r>     5.7908     0.0000     0.0000 </r>
       <r>     5.8796     0.0000     0.0000 </r>
       <r>     5.9685     0.0000     0.0000 </r>
       <r>     6.0573     0.0000     0.0000 </r>
       <r>     6.1461     0.0000     0.0000 </r>
       <r>     6.2349     0.0000     0.0000 </r>
       <r>     6.3238     0.0000     0.0000 </r>
       <r>     6.4126     0.0000     0.0000 </r>
       <r>     6.5014     0.0000     0.0000 </r>
       <r>     6.5903     0.0000     0.0000 </r>
       <r>     6.6791     0.0000     0.0000 </r>
       <r>     6.7679     0.0000     0.0000 </r>
       <r>     6.8568     0.0000     0.0000 </r>
       <r>     6.9456     0.0000     0.0000 </r>
       <r>     7.0344     0.0000     0.0000 </r>
       <r>     7.1232     0.0000     0.0000 </r>
       <r>     7.2121     0.0000     0.0000 </r>
       <r>     7.3009     0.0000     0.0000 </r>
       <r>     7.3897     0.0000     0.0000 </r>
       <r>     7.4786     0.0000     0.0000 </r>
       <r>     7.5674     0.0000     0.0000 </r>
       <r>     7.6562     0.0000     0.0000 </r>
       <r>     7.7450     0.0000     0.0000 </r>
       <r>     7.8339     0.0000     0.0000 </r>
       <r>     7.9227     0.0000     0.0000 </r>
       <r>     8.0115     0.0000     0.0000 </r>
       <r>     8.1004     0.0000     0.0000 </r>
       <r>     8.1892     0.0000     0.0000 </r>
       <r>     8.2780     0.0000     0.0000 </r>
       <r>     8.3669     0.0000     0.0000 </r>
       <r>     8.4557     0.0000     0.0000 </r>
       <r>     8.5445     0.0000     0.0000 </r>
       <r>     8.6333     0.0000     0.0000 </r>
       <r>     8.7222     0.0000     0.0000 </r>
       <r>     8.8110     0.0000     0.0000 </r>
       <r>     8.8998     0.0000     0.0000 </r>
       <r>     8.9887     0.0000     0.0000 </r>
       <r>     9.0775     0.0000     0.0000 </r>
       <r>     9.1663     0.0000     0.0000 </r>
       <r>     9.2552     0.0000     0.0000 </r>
       <r>     9.3440     0.0000     0.0000 </r>
       <r>     9.4328     0.0000     0.0000 </r>
       <r>     9.5216     0.0000     0.0000 </r>
       <r>     9.6105     0.0000     0.0000 </r>
       <r>     9.6993     0.0000     0.0000 </r>
       <r>     9.7881     0.0000     0.0000 </r>
       <r>     9.8770     0.0000     0.0000 </r>
       <r>     9.9658     0.0000     0.0000 </r>
       <r>    10.0546     0.0000     0.0000 </r>
       <r>    10.1434     0.0000     0.0000 </r>
       <r>    10.2323     0.0000     0.0000 </r>
       <r>    10.3211     0.0000     0.0000 </r>
       <r>    10.4099     0.0000     0.0000 </r>
       <r>    10.4988     0.0000     0.0000 </r>
       <r>    10.5876     0.0000     0.0000 </r>
       <r>    10.6764     0.0000     0.0000 </r>
       <r>    10.7653     0.0000     0.0000 </r>
       <r>    10.8541     0.0000     0.0000 </r>
       <r>    10.9429     0.0000     0.0000 </r>
       <r>    11.0317     0.0000     0.0000 </r>
       <r>    11.1206     0.0000     0.0000 </r>
       <r>    11.2094     0.0000     0.0000 </r>
       <r>    11.2982     0.0000     0.0000 </r>
       <r>    11.3871     0.0000     0.0000 </r>
       <r>    11.4759     0.0000     0.0000 </r>
       <r>    11.5647     0.0000     0.0000 </r>
       <r>    11.6536     0.0000     0.0000 </r>
       <r>    11.7424     0.0000     0.0000 </r>
       <r>    11.8312     0.0000     0.0000 </r>
       <r>    11.9200     0.0000     0.0000 </r>
       <r>    12.0089     0.0000     0.0000 </r>
       <r>    12.0977     0.0000     0.0000 </r>
       <r>    12.1865     0.0000     0.0000 </r>
       <r>    12.2754     0.0000     0.0000 </r>
       <r>    12.3642     0.0000     0.0000 </r>
       <r>    12.4530     0.0000     0.0000 </r>
       <r>    12.5419     0.0000     0.0000 </r>
       <r>    12.6307     0.0000     0.0000 </r>
       <r>    12.7195     0.0000     0.0000 </r>
       <r>    12.8083     0.0000     0.0000 </r>
       <r>    12.8972     0.0000     0.0000 </r>
       <r>    12.9860     0.0000     0.0000 </r>
       <r>    13.0748     0.0000     0.0000 </r>
       <r>    13.1637     0.0000     0.0000 </r>
       <r>    13.2525     0.0000     0.0000 </r>
       <r>    13.3413     0.0000     0.0000 </r>
       <r>    13.4301     0.0000     0.0000 </r>
       <r>    13.5190     0.0000     0.0000 </r>
       <r>    13.6078     0.0000     0.0000 </r>
       <r>    13.6966     0.0000     0.0000 </r>
       <r>    13.7855     0.0000     0.0000 </r>
       <r>    13.8743     0.0000     0.0000 </r>
       <r>    13.9631     0.0000     0.0000 </r>
       <r>    14.0520     0.0000     0.0000 </r>
       <r>    14.1408     0.0000     0.0000 </r>
       <r>    14.2296     0.0000     0.0000 </r>
       <r>    14.3184     0.0000     0.0000 </r>
       <r>    14.4073     0.0000     0.0000 </r>
       <r>    14.4961     0.0000     0.0000 </r>
       <r>    14.5849     0.0000     0.0000 </r>
       <r>    14.6738     0.0000     0.0000 </r>
       <r>    14.7626     0.0000     0.0000 </r>
       <r>    14.8514     0.0000     0.0000 </r>
       <r>    14.9403     0.0000     0.0000 </r>
       <r>    15.0291     0.0000     0.0000 </r>
       <r>    15.1179     0.0000     0.0000 </r>
       <r>    15.2067     0.0000     0.0000 </r>
       <r>    15.2956     0.0000     0.0000 </r>
       <r>    15.3844     0.0000     0.0000 </r>
       <r>    15.4732     0.0000     0.0000 </r>
       <r>    15.5621     0.0000     0.0000 </r>
       <r>    15.6509     0.0000     0.0000 </r>
       <r>    15.7397     0.0000     0.0000 </r>
[...]
       <r>     9.0775     0.0000     0.0000 </r>
       <r>     9.1663     0.0000     0.0000 </r>
       <r>     9.2552     0.0000     0.0000 </r>
       <r>     9.3440     0.0000     0.0000 </r>
       <r>     9.4328     0.0000     0.0000 </r>
       <r>     9.5216     0.0000     0.0000 </r>
       <r>     9.6105     0.0000     0.0000 </r>
       <r>     9.6993     0.0000     0.0000 </r>
       <r>     9.7881     0.0000     0.0000 </r>
       <r>     9.8770     0.0000     0.0000 </r>
       <r>     9.9658     0.0000     0.0000 </r>
       <r>    10.0546     0.0000     0.0000 </r>
       <r>    10.1434     0.0000     0.0000 </r>
       <r>    10.2323     0.0000     0.0000 </r>
       <r>    10.3211     0.0000     0.0000 </r>
       <r>    10.4099     0.0000     0.0000 </r>
       <r>    10.4988     0.0000     0.0000 </r>
       <r>    10.5876     0.0000     0.0000 </r>
       <r>    10.6764     0.0000     0.0000 </r>
       <r>    10.7653     0.0000     0.0000 </r>
       <r>    10.8541     0.0000     0.0000 </r>
       <r>    10.9429     0.0000     0.0000 </r>
       <r>    11.0317     0.0000     0.0000 </r>
       <r>    11.1206     0.0000     0.0000 </r>
       <r>    11.2094     0.0000     0.0000 </r>
       <r>    11.2982     0.0000     0.0000 </r>
       <r>    11.3871     0.0000     0.0000 </r>
       <r>    11.4759     0.0000     0.0000 </r>
       <r>    11.5647     0.0000     0.0000 </r>
       <r>    11.6536     0.0000     0.0000 </r>
       <r>    11.7424     0.0000     0.0000 </r>
       <r>    11.8312     0.0000     0.0000 </r>
       <r>    11.9200     0.0000     0.0000 </r>
       <r>    12.0089     0.0000     0.0000 </r>
       <r>    12.0977     0.0000     0.0000 </r>
       <r>    12.1865     0.0000     0.0000 </r>
       <r>    12.2754     0.0000     0.0000 </r>
       <r>    12.3642     0.0000     0.0000 </r>
       <r>    12.4530     0.0000     0.0000 </r>
       <r>    12.5419     0.0000     0.0000 </r>
       <r>    12.6307     0.0000     0.0000 </r>
       <r>    12.7195     0.0000     0.0000 </r>
       <r>    12.8083     0.0000     0.0000 </r>
       <r>    12.8972     0.0000     0.0000 </r>
       <r>    12.9860     0.0000     0.0000 </r>
       <r>    13.0748     0.0000     0.0000 </r>
       <r>    13.1637     0.0000     0.0000 </r>
       <r>    13.2525     0.0000     0.0000 </r>
       <r>    13.3413     0.0000     0.0000 </r>
       <r>    13.4301     0.0000     0.0000 </r>
       <r>    13.5190     0.0000     0.0000 </r>
       <r>    13.6078     0.0000     0.0000 </r>
       <r>    13.6966     0.0000     0.0000 </r>
       <r>    13.7855     0.0000     0.0000 </r>
       <r>    13.8743     0.0000     0.0000 </r>
       <r>    13.9631     0.0000     0.0000 </r>
       <r>    14.0520     0.0000     0.0000 </r>
       <r>    14.1408     0.0000     0.0000 </r>
       <r>    14.2296     0.0000     0.0000 </r>
       <r>    14.3184     0.0000     0.0000 </r>
       <r>    14.4073     0.0000     0.0000 </r>
       <r>    14.4961     0.0000     0.0000 </r>
       <r>    14.5849     0.0000     0.0000 </r>
       <r>    14.6738     0.0000     0.0000 </r>
       <r>    14.7626     0.0000     0.0000 </r>
       <r>    14.8514     0.0000     0.0000 </r>
       <r>    14.9403     0.0000     0.0000 </r>
       <r>    15.0291     0.0000     0.0000 </r>
       <r>    15.1179     0.0000     0.0000 </r>
       <r>    15.2067     0.0000     0.0000 </r>
       <r>    15.2956     0.0000     0.0000 </r>
       <r>    15.3844     0.0000     0.0000 </r>
       <r>    15.4732     0.0000     0.0000 </r>
       <r>    15.5621     0.0000     0.0000 </r>
       <r>    15.6509     0.0000     0.0000 </r>
       <r>    15.7397     0.0000     0.0000 </r>
       <r>    15.8285     0.0000     0.0000 </r>
       <r>    15.9174     0.0000     0.0000 </r>
       <r>    16.0062     0.0000     0.0000 </r>
       <r>    16.0950     0.0000     0.0000 </r>
       <r>    16.1839     0.0000     0.0000 </r>
       <r>    16.2727     0.0000     0.0000 </r>
       <r>    16.3615     0.0000     0.0000 </r>
       <r>    16.4504     0.0000     0.0000 </r>
       <r>    16.5392     0.0000     0.0000 </r>
       <r>    16.6280     0.0000     0.0000 </r>
       <r>    16.7168     0.0000     0.0000 </r>
       <r>    16.8057     0.0000     0.0000 </r>
       <r>    16.8945     0.0000     0.0000 </r>
      </set>
      <set comment="spin 4">
       <r>    -9.7544     0.0000     0.0000 </r>
       <r>    -9.6656     0.0000     0.0000 </r>
       <r>    -9.5767     0.0000     0.0000 </r>
       <r>    -9.4879     0.0000     0.0000 </r>
       <r>    -9.3991     0.0000     0.0000 </r>
       <r>    -9.3102     0.0000     0.0000 </r>
       <r>    -9.2214     0.0000     0.0000 </r>
       <r>    -9.1326     0.0000     0.0000 </r>
       <r>    -9.0438     0.0000     0.0000 </r>
       <r>    -8.9549     0.0000     0.0000 </r>
       <r>    -8.8661     0.0000     0.0000 </r>
       <r>    -8.7773     0.0000     0.0000 </r>
       <r>    -8.6884     0.0000     0.0000 </r>
       <r>    -8.5996     0.0000     0.0000 </r>
       <r>    -8.5108     0.0000     0.0000 </r>
       <r>    -8.4220     0.0000     0.0000 </r>
       <r>    -8.3331     0.0000     0.0000 </r>
       <r>    -8.2443     0.0000     0.0000 </r>
       <r>    -8.1555     0.0000     0.0000 </r>
       <r>    -8.0666     0.0000     0.0000 </r>
       <r>    -7.9778     0.0000     0.0000 </r>
       <r>    -7.8890     0.0000     0.0000 </r>
       <r>    -7.8001     0.0000     0.0000 </r>
       <r>    -7.7113     0.0000     0.0000 </r>
       <r>    -7.6225     0.0000     0.0000 </r>
       <r>    -7.5337     0.0000     0.0000 </r>
       <r>    -7.4448     0.0000     0.0000 </r>
       <r>    -7.3560     0.0000     0.0000 </r>
       <r>    -7.2672     0.0000     0.0000 </r>
       <r>    -7.1783     0.0000     0.0000 </r>
       <r>    -7.0895     0.0000     0.0000 </r>
       <r>    -7.0007     0.0000     0.0000 </r>
       <r>    -6.9118     0.0000     0.0000 </r>
       <r>    -6.8230     0.0000     0.0000 </r>
       <r>    -6.7342     0.0000     0.0000 </r>
       <r>    -6.6454     0.0000     0.0000 </r>
       <r>    -6.5565     0.0000     0.0000 </r>
       <r>    -6.4677     0.0000     0.0000 </r>
       <r>    -6.3789     0.0000     0.0000 </r>
       <r>    -6.2900     0.0000     0.0000 </r>
       <r>    -6.2012     0.0000     0.0000 </r>
       <r>    -6.1124     0.0000     0.0000 </r>
       <r>    -6.0236     0.0000     0.0000 </r>
       <r>    -5.9347     0.0000     0.0000 </r>
       <r>    -5.8459     0.0000     0.0000 </r>
       <r>    -5.7571     0.0000     0.0000 </r>
       <r>    -5.6682     0.0000     0.0000 </r>
       <r>    -5.5794     0.0000     0.0000 </r>
       <r>    -5.4906     0.0000     0.0000 </r>
       <r>    -5.4017     0.0000     0.0000 </r>
       <r>    -5.3129     0.0000     0.0000 </r>
       <r>    -5.2241     0.0000     0.0000 </r>
       <r>    -5.1353     0.0000     0.0000 </r>
       <r>    -5.0464     0.0000     0.0000 </r>
       <r>    -4.9576     0.0000     0.0000 </r>
       <r>    -4.8688     0.0000     0.0000 </r>
       <r>    -4.7799     0.0000     0.0000 </r>
       <r>    -4.6911     0.0000     0.0000 </r>
       <r>    -4.6023     0.0000     0.0000 </r>
       <r>    -4.5134     0.0000     0.0000 </r>
       <r>    -4.4246     0.0000     0.0000 </r>
       <r>    -4.3358     0.0000     0.0000 </r>
       <r>    -4.2470     0.0000     0.0000 </r>
       <r>    -4.1581     0.0000     0.0000 </r>
       <r>    -4.0693     0.0000     0.0000 </r>
       <r>    -3.9805     0.0000     0.0000 </r>
       <r>    -3.8916     0.0000     0.0000 </r>
       <r>    -3.8028     0.0000     0.0000 </r>
       <r>    -3.7140     0.0000     0.0000 </r>
       <r>    -3.6252     0.0000     0.0000 </r>
       <r>    -3.5363     0.0000     0.0000 </r>
       <r>    -3.4475     0.0000     0.0000 </r>
       <r>    -3.3587     0.0000     0.0000 </r>
       <r>    -3.2698     0.0000     0.0000 </r>
       <r>    -3.1810     0.0000     0.0000 </r>
       <r>    -3.0922     0.0000     0.0000 </r>
       <r>    -3.0033     0.0000     0.0000 </r>
       <r>    -2.9145     0.0000     0.0000 </r>
       <r>    -2.8257     0.0000     0.0000 </r>
       <r>    -2.7369     0.0000     0.0000 </r>
       <r>    -2.6480     0.0000     0.0000 </r>
       <r>    -2.5592     0.0000     0.0000 </r>
       <r>    -2.4704     0.0000     0.0000 </r>
       <r>    -2.3815     0.0000     0.0000 </r>
       <r>    -2.2927     0.0000     0.0000 </r>
       <r>    -2.2039     0.0000     0.0000 </r>
       <r>    -2.1150     0.0000     0.0000 </r>
       <r>    -2.0262     0.0000     0.0000 </r>
       <r>    -1.9374     0.0000     0.0000 </r>
       <r>    -1.8486     0.0000     0.0000 </r>
       <r>    -1.7597     0.0000     0.0000 </r>
       <r>    -1.6709     0.0000     0.0000 </r>
       <r>    -1.5821     0.0000     0.0000 </r>
       <r>    -1.4932     0.0000     0.0000 </r>
       <r>    -1.4044     0.0000     0.0000 </r>
       <r>    -1.3156     0.0000     0.0000 </r>
       <r>    -1.2267     0.0000     0.0000 </r>
       <r>    -1.1379     0.0000     0.0000 </r>
       <r>    -1.0491     0.0000     0.0000 </r>
       <r>    -0.9603     0.0000     0.0000 </r>
       <r>    -0.8714     0.0000     0.0000 </r>
       <r>    -0.7826     0.0000     0.0000 </r>
       <r>    -0.6938     0.0000     0.0000 </r>
       <r>    -0.6049     0.0000     0.0000 </r>
       <r>    -0.5161     0.0000     0.0000 </r>
       <r>    -0.4273     0.0000     0.0000 </r>
       <r>    -0.3385     0.0000     0.0000 </r>
       <r>    -0.2496     0.0000     0.0000 </r>
       <r>    -0.1608     0.0000     0.0000 </r>
       <r>    -0.0720     0.0000     0.0000 </r>
       <r>     0.0169     0.0000     0.0000 </r>
       <r>     0.1057     0.0000     0.0000 </r>
       <r>     0.1945     0.0000     0.0000 </r>
       <r>     0.2834     0.0000     0.0000 </r>
       <r>     0.3722     0.0000     0.0000 </r>
       <r>     0.4610     0.0000     0.0000 </r>
       <r>     0.5498     0.0000     0.0000 </r>
       <r>     0.6387     0.0000     0.0000 </r>
       <r>     0.7275     0.0000     0.0000 </r>
       <r>     0.8163     0.0000     0.0000 </r>
       <r>     0.9052     0.0000     0.0000 </r>
       <r>     0.9940     0.0000     0.0000 </r>
       <r>     1.0828     0.0000     0.0000 </r>
       <r>     1.1717     0.0000     0.0000 </r>
       <r>     1.2605     0.0000     0.0000 </r>
       <r>     1.3493     0.0000     0.0000 </r>
       <r>     1.4381     0.0000     0.0000 </r>
       <r>     1.5270     0.0000     0.0000 </r>
       <r>     1.6158     0.0000     0.0000 </r>
       <r>     1.7046     0.0000     0.0000 </r>
       <r>     1.7935     0.0000     0.0000 </r>
       <r>     1.8823     0.0000     0.0000 </r>
       <r>     1.9711     0.0000     0.0000 </r>
       <r>     2.0599     0.0000     0.0000 </r>
       <r>     2.1488     0.0000     0.0000 </r>
       <r>     2.2376     0.0000     0.0000 </r>
       <r>     2.3264     0.0000     0.0000 </r>
       <r>     2.4153     0.0000     0.0000 </r>
       <r>     2.5041     0.0000     0.0000 </r>
       <r>     2.5929     0.0000     0.0000 </r>
       <r>     2.6818     0.0000     0.0000 </r>
       <r>     2.7706     0.0000     0.0000 </r>
       <r>     2.8594     0.0000     0.0000 </r>
       <r>     2.9482     0.0000     0.0000 </r>
       <r>     3.0371     0.0000     0.0000 </r>
       <r>     3.1259     0.0000     0.0000 </r>
       <r>     3.2147     0.0000     0.0000 </r>
       <r>     3.3036     0.0000     0.0000 </r>
       <r>     3.3924     0.0000     0.0000 </r>
       <r>     3.4812     0.0000     0.0000 </r>
       <r>     3.5701     0.0000     0.0000 </r>
       <r>     3.6589     0.0000     0.0000 </r>
       <r>     3.7477     0.0000     0.0000 </r>
       <r>     3.8365     0.0000     0.0000 </r>
       <r>     3.9254     0.0000     0.0000 </r>
       <r>     4.0142     0.0000     0.0000 </r>
       <r>     4.1030     0.0000     0.0000 </r>
       <r>     4.1919     0.0000     0.0000 </r>
       <r>     4.2807     0.0000     0.0000 </r>
       <r>     4.3695     0.0000     0.0000 </r>
       <r>     4.4583     0.0000     0.0000 </r>
       <r>     4.5472     0.0000     0.0000 </r>
       <r>     4.6360     0.0000     0.0000 </r>
       <r>     4.7248     0.0000     0.0000 </r>
       <r>     4.8137     0.0000     0.0000 </r>
       <r>     4.9025     0.0000     0.0000 </r>
       <r>     4.9913     0.0000     0.0000 </r>
       <r>     5.0802     0.0000     0.0000 </r>
       <r>     5.1690     0.0000     0.0000 </r>
       <r>     5.2578     0.0000     0.0000 </r>
       <r>     5.3466     0.0000     0.0000 </r>
       <r>     5.4355     0.0000     0.0000 </r>
       <r>     5.5243     0.0000     0.0000 </r>
       <r>     5.6131     0.0000     0.0000 </r>
       <r>     5.7020     0.0000     0.0000 </r>
       <r>     5.7908     0.0000     0.0000 </r>
       <r>     5.8796     0.0000     0.0000 </r>
       <r>     5.9685     0.0000     0.0000 </r>
       <r>     6.0573     0.0000     0.0000 </r>
       <r>     6.1461     0.0000     0.0000 </r>
       <r>     6.2349     0.0000     0.0000 </r>
       <r>     6.3238     0.0000     0.0000 </r>
       <r>     6.4126     0.0000     0.0000 </r>
       <r>     6.5014     0.0000     0.0000 </r>
       <r>     6.5903     0.0000     0.0000 </r>
       <r>     6.6791     0.0000     0.0000 </r>
       <r>     6.7679     0.0000     0.0000 </r>
       <r>     6.8568     0.0000     0.0000 </r>
       <r>     6.9456     0.0000     0.0000 </r>
       <r>     7.0344     0.0000     0.0000 </r>
       <r>     7.1232     0.0000     0.0000 </r>
       <r>     7.2121     0.0000     0.0000 </r>
       <r>     7.3009     0.0000     0.0000 </r>
       <r>     7.3897     0.0000     0.0000 </r>
       <r>     7.4786     0.0000     0.0000 </r>
       <r>     7.5674     0.0000     0.0000 </r>
       <r>     7.6562     0.0000     0.0000 </r>
       <r>     7.7450     0.0000     0.0000 </r>
       <r>     7.8339     0.0000     0.0000 </r>
       <r>     7.9227     0.0000     0.0000 </r>
       <r>     8.0115     0.0000     0.0000 </r>
       <r>     8.1004     0.0000     0.0000 </r>
       <r>     8.1892     0.0000     0.0000 </r>
       <r>     8.2780     0.0000     0.0000 </r>
       <r>     8.3669     0.0000     0.0000 </r>
       <r>     8.4557     0.0000     0.0000 </r>
       <r>     8.5445     0.0000     0.0000 </r>
       <r>     8.6333     0.0000     0.0000 </r>
       <r>     8.7222     0.0000     0.0000 </r>
       <r>     8.8110     0.0000     0.0000 </r>
       <r>     8.8998     0.0000     0.0000 </r>
       <r>     8.9887     0.0000     0.0000 </r>
       <r>     9.0775     0.0000     0.0000 </r>
       <r>     9.1663     0.0000     0.0000 </r>
       <r>     9.2552     0.0000     0.0000 </r>
       <r>     9.3440     0.0000     0.0000 </r>
       <r>     9.4328     0.0000     0.0000 </r>
       <r>     9.5216     0.0000     0.0000 </r>
       <r>     9.6105     0.0000     0.0000 </r>
       <r>     9.6993     0.0000     0.0000 </r>
       <r>     9.7881     0.0000     0.0000 </r>
       <r>     9.8770     0.0000     0.0000 </r>
       <r>     9.9658     0.0000     0.0000 </r>
       <r>    10.0546     0.0000     0.0000 </r>
       <r>    10.1434     0.0000     0.0000 </r>
       <r>    10.2323     0.0000     0.0000 </r>
       <r>    10.3211     0.0000     0.0000 </r>
       <r>    10.4099     0.0000     0.0000 </r>
       <r>    10.4988     0.0000     0.0000 </r>
       <r>    10.5876     0.0000     0.0000 </r>
       <r>    10.6764     0.0000     0.0000 </r>
       <r>    10.7653     0.0000     0.0000 </r>
       <r>    10.8541     0.0000     0.0000 </r>
       <r>    10.9429     0.0000     0.0000 </r>
       <r>    11.0317     0.0000     0.0000 </r>
       <r>    11.1206     0.0000     0.0000 </r>
       <r>    11.2094     0.0000     0.0000 </r>
       <r>    11.2982     0.0000     0.0000 </r>
       <r>    11.3871     0.0000     0.0000 </r>
       <r>    11.4759     0.0000     0.0000 </r>
       <r>    11.5647     0.0000     0.0000 </r>
       <r>    11.6536     0.0000     0.0000 </r>
       <r>    11.7424     0.0000     0.0000 </r>
       <r>    11.8312     0.0000     0.0000 </r>
       <r>    11.9200     0.0000     0.0000 </r>
       <r>    12.0089     0.0000     0.0000 </r>
       <r>    12.0977     0.0000     0.0000 </r>
       <r>    12.1865     0.0000     0.0000 </r>
       <r>    12.2754     0.0000     0.0000 </r>
       <r>    12.3642     0.0000     0.0000 </r>
       <r>    12.4530     0.0000     0.0000 </r>
       <r>    12.5419     0.0000     0.0000 </r>
       <r>    12.6307     0.0000     0.0000 </r>
       <r>    12.7195     0.0000     0.0000 </r>
       <r>    12.8083     0.0000     0.0000 </r>
       <r>    12.8972     0.0000     0.0000 </r>
       <r>    12.9860     0.0000     0.0000 </r>
       <r>    13.0748     0.0000     0.0000 </r>
       <r>    13.1637     0.0000     0.0000 </r>
       <r>    13.2525     0.0000     0.0000 </r>
       <r>    13.3413     0.0000     0.0000 </r>
       <r>    13.4301     0.0000     0.0000 </r>
       <r>    13.5190     0.0000     0.0000 </r>
       <r>    13.6078     0.0000     0.0000 </r>
       <r>    13.6966     0.0000     0.0000 </r>
       <r>    13.7855     0.0000     0.0000 </r>
       <r>    13.8743     0.0000     0.0000 </r>
       <r>    13.9631     0.0000     0.0000 </r>
       <r>    14.0520     0.0000     0.0000 </r>
       <r>    14.1408     0.0000     0.0000 </r>
       <r>    14.2296     0.0000     0.0000 </r>
       <r>    14.3184     0.0000     0.0000 </r>
       <r>    14.4073     0.0000     0.0000 </r>
       <r>    14.4961     0.0000     0.0000 </r>
       <r>    14.5849     0.0000     0.0000 </r>
       <r>    14.6738     0.0000     0.0000 </r>
       <r>    14.7626     0.0000     0.0000 </r>
       <r>    14.8514     0.0000     0.0000 </r>
       <r>    14.9403     0.0000     0.0000 </r>
       <r>    15.0291     0.0000     0.0000 </r>
       <r>    15.1179     0.0000     0.0000 </r>
       <r>    15.2067     0.0000     0.0000 </r>
       <r>    15.2956     0.0000     0.0000 </r>
       <r>    15.3844     0.0000     0.0000 </r>
       <r>    15.4732     0.0000     0.0000 </r>
       <r>    15.5621     0.0000     0.0000 </r>
       <r>    15.6509     0.0000     0.0000 </r>
       <r>    15.7397     0.0000     0.0000 </r>
       <r>    15.8285     0.0000     0.0000 </r>
       <r>    15.9174     0.0000     0.0000 </r>
       <r>    16.0062     0.0000     0.0000 </r>
       <r>    16.0950     0.0000     0.0000 </r>
       <r>    16.1839     0.0000     0.0000 </r>
       <r>    16.2727     0.0000     0.0000 </r>
       <r>    16.3615     0.0000     0.0000 </r>
       <r>    16.4504     0.0000     0.0000 </r>
       <r>    16.5392     0.0000     0.0000 </r>
       <r>    16.6280     0.0000     0.0000 </r>
       <r>    16.7168     0.0000     0.0000 </r>
       <r>    16.8057     0.0000     0.0000 </r>
       <r>    16.8945     0.0000     0.0000 </r>
      </set>
     </set>
    </array>
   </total>
  </dos>
 </calculation>
 <structure name="finalpos" >
  <crystal>
   <varray name="basis" >
    <v>       0.00000000       3.02920000       3.02920000 </v>
    <v>       3.02920000       0.00000000       3.02920000 </v>
    <v>       3.02920000       3.02920000       0.00000000 </v>
   </varray>
   <i name="volume">     55.59219731 </i>
   <varray name="rec_basis" >
    <v>      -0.16506008       0.16506008       0.16506008 </v>
    <v>       0.16506008      -0.16506008       0.16506008 </v>
    <v>       0.16506008       0.16506008      -0.16506008 </v>
   </varray>
  </crystal>
  <varray name="positions" >
   <v>       0.00000000       0.00000000       0.00000000 </v>
   <v>       0.75000000       0.75000000       0.75000000 </v>
  </varray>
 </structure>
</modeling>
