unknown system                          
   1.00000000000000     
     0.000000    2.816500    2.816500
     2.816500    0.000000    2.816500
     2.816500    2.816500    0.000000
   Ge
     2
Direct
  0.000000  0.000000  0.000000
  0.250000  0.250000  0.250000
 
   48   48   48
 -6.9127     -6.1265     -3.8829     -.50568      3.5333      7.7018      11.502      14.551      16.623      17.662    
  17.748      17.063      15.848      14.363      12.859      11.516      10.357      9.3659      8.5332      7.8510    
  7.3116      6.9059      6.6247      6.4597      6.4053      6.4597      6.6247      6.9059      7.3116      7.8510    
  8.5332      9.3659      10.357      11.516      12.859      14.363      15.848      17.063      17.748      17.662    
  16.623      14.551      11.502      7.7018      3.5333     -.50568     -3.8829     -6.1265     -6.1265     -4.6321    
 -1.8529      1.8292      5.9279      9.9383      13.421      16.064      17.712      18.359      18.126      17.217    
  15.887      14.398      12.988      11.756      10.690      9.7811      9.0216      8.4064      7.9290      7.5811    
  7.3548      7.2435      7.2435      7.3548      7.5811      7.9290      8.4064      9.0216      9.7811      10.690    
  11.756      12.988      14.398      15.887      17.217      18.126      18.359      17.712      16.064      13.421    
  9.9383      5.9279      1.8292     -1.8529     -4.6321     -6.1265     -3.8829     -1.8529      1.2246      4.9450    
  8.8423      12.466      15.450      17.558      18.698      18.914      18.358      17.253      15.859      14.434    
  13.156      12.039      11.072      10.251      9.5711      9.0288      8.6182      8.3320      8.1635      8.1079    
  8.1635      8.3320      8.6182      9.0288      9.5711      10.251      11.072      12.039      13.156      14.434    
  15.859      17.253      18.358      18.914      18.698      17.558      15.450      12.466      8.8423      4.9450    
  1.2246     -1.8529     -3.8829     -4.5918     -.50568      1.8292      4.9450      8.4484      11.920      14.981    
  17.343      18.843      19.446      19.239      18.399      17.162      15.787      14.497      13.359      12.362    
  11.500      10.774      10.180      9.7156      9.3755      9.1532      9.0436      9.0436      9.1532      9.3755    
  9.7156      10.180      10.774      11.500      12.362      13.359      14.497      15.787      17.162      18.399    
  19.239      19.446      18.843      17.343      14.981      11.920      8.4484      4.9450      1.8292     -.50568    
 -1.7557     -1.7557      3.5333      5.9279      8.8423      11.920      14.806      17.197      18.882      19.762    
  19.855      19.282      18.242      16.974      15.718      14.592      13.595      12.723      11.973      11.347    
  10.845      10.463      10.195      10.037      9.9842      10.037      10.195      10.463      10.845      11.347    
  11.973      12.723      13.595      14.592      15.718      16.974      18.242      19.282      19.855      19.762    
  18.882      17.197      14.806      11.920      8.8423      5.9279      3.5333      1.9611      1.4134      1.9611    
  7.7018      9.9383      12.466      14.981      17.197      18.886      19.906      20.216      19.879      19.047    
  17.928      16.752      15.677      14.716      13.864      13.120      12.489      11.970      11.563      11.263    
  11.066      10.968      10.968      11.066      11.263      11.563      11.970      12.489      13.120      13.864    
  14.716      15.677      16.752      17.928      19.047      19.879      20.216      19.906      18.886      17.197    
  14.981      12.466      9.9383      7.7018      6.0330      5.1422      5.1422      6.0330      11.502      13.421    
  15.450      17.343      18.882      19.906      20.334      20.179      19.542      18.594      17.540      16.554    
  15.664      14.867      14.163      13.555      13.047      12.637      12.318      12.090      11.952      11.906    
  11.952      12.090      12.318      12.637      13.047      13.555      14.163      14.867      15.664      16.554    
  17.540      18.594      19.542      20.179      20.334      19.906      18.882      17.343      15.450      13.421    
  11.502      9.9297      8.9001      8.5419      8.9001      9.9297      14.551      16.064      17.558      18.843    
  19.762      20.216      20.179      19.709      18.936      18.034      17.170      16.386      15.677      15.045    
  14.494      14.024      13.630      13.305      13.053      12.880      12.792      12.792      12.880      13.053    
  13.305      13.630      14.024      14.494      15.045      15.677      16.386      17.170      18.034      18.936    
  19.709      20.179      20.216      19.762      18.843      17.558      16.064      14.551      13.209      12.210    
  11.677      11.677      12.210      13.209      16.623      17.712      18.698      19.446      19.855      19.879    
  19.542      18.936      18.202      17.489      16.838      16.247      15.718      15.253      14.848      14.489    
  14.175      13.911      13.710      13.583      13.540      13.583      13.710      13.911      14.175      14.489    
  14.848      15.253      15.718      16.247      16.838      17.489      18.202      18.936      19.542      19.879    
  19.855      19.446      18.698      17.712      16.623      15.582      14.725      14.164      13.969      14.164    
  14.725      15.582      17.662      18.359      18.914      19.239      19.282      19.047      18.594      18.034    
  17.489      16.992      16.542      16.139      15.787      15.471      15.172      14.887      14.628      14.410    
  14.253      14.170      14.170      14.253      14.410      14.628      14.887      15.172      15.471      15.787    
  16.139      16.542      16.992      17.489      18.034      18.594      19.047      19.282      19.239      18.914    
  18.359      17.662      16.930      16.272      15.779      15.515      15.515      15.779      16.272      16.930    
  17.748      18.126      18.358      18.399      18.242      17.928      17.540      17.170      16.838      16.542    
  16.283      16.062      15.859      15.645      15.415      15.181      14.964      14.787      14.671      14.631    
  14.671      14.787      14.964      15.181      15.415      15.645      15.859      16.062      16.283      16.542    
  16.838      17.170      17.540      17.928      18.242      18.399      18.358      18.126      17.748      17.293    
  16.840      16.460      16.209      16.121      16.209      16.460      16.840      17.293      17.063      17.217    
  17.253      17.162      16.974      16.752      16.554      16.386      16.247      16.139      16.062      15.990    
  15.887      15.739      15.556      15.361      15.183      15.047      14.974      14.974      15.047      15.183    
  15.361      15.556      15.739      15.887      15.990      16.062      16.139      16.247      16.386      16.554    
  16.752      16.974      17.162      17.253      17.217      17.063      16.824      16.550      16.291      16.091    
  15.984      15.984      16.091      16.291      16.550      16.824      15.848      15.887      15.859      15.787    
  15.718      15.677      15.664      15.677      15.718      15.787      15.859      15.887      15.848      15.745    
  15.600      15.443      15.304      15.210      15.177      15.210      15.304      15.443      15.600      15.745    
  15.848      15.887      15.859      15.787      15.718      15.677      15.664      15.677      15.718      15.787    
  15.859      15.887      15.848      15.745      15.600      15.443      15.304      15.210      15.177      15.210    
  15.304      15.443      15.600      15.745      14.363      14.398      14.434      14.497      14.592      14.716    
  14.867      15.045      15.253      15.471      15.645      15.739      15.745      15.680      15.571      15.453    
  15.356      15.302      15.302      15.356      15.453      15.571      15.680      15.745      15.739      15.645    
  15.471      15.253      15.045      14.867      14.716      14.592      14.497      14.434      14.398      14.363    
  14.308      14.229      14.136      14.045      13.973      13.933      13.933      13.973      14.045      14.136    
  14.229      14.308      12.859      12.988      13.156      13.359      13.595      13.864      14.163      14.494    
  14.848      15.172      15.415      15.556      15.600      15.571      15.502      15.426      15.369      15.348    
  15.369      15.426      15.502      15.571      15.600      15.556      15.415      15.172      14.848      14.494    
  14.163      13.864      13.595      13.359      13.156      12.988      12.859      12.761      12.677      12.599    
  12.527      12.467      12.427      12.413      12.427      12.467      12.527      12.599      12.677      12.761    
  11.516      11.756      12.039      12.362      12.723      13.120      13.555      14.024      14.489      14.887    
  15.181      15.361      15.443      15.453      15.426      15.390      15.366      15.366      15.390      15.426    
  15.453      15.443      15.361      15.181      14.887      14.489      14.024      13.555      13.120      12.723    
  12.362      12.039      11.756      11.516      11.320      11.165      11.046      10.954      10.884      10.835    
  10.810      10.810      10.835      10.884      10.954      11.046      11.165      11.320      10.357      10.690    
  11.072      11.500      11.973      12.489      13.047      13.630      14.175      14.628      14.964      15.183    
  15.304      15.356      15.369      15.366      15.364      15.366      15.369      15.356      15.304      15.183    
  14.964      14.628      14.175      13.630      13.047      12.489      11.973      11.500      11.072      10.690    
  10.357      10.073      9.8380      9.6492      9.5021      9.3921      9.3154      9.2700      9.2548      9.2700    
  9.3154      9.3921      9.5021      9.6492      9.8380      10.073      9.3659      9.7811      10.251      10.774    
  11.347      11.970      12.637      13.305      13.911      14.410      14.787      15.047      15.210      15.302    
  15.348      15.366      15.366      15.348      15.302      15.210      15.047      14.787      14.410      13.911    
  13.305      12.637      11.970      11.347      10.774      10.251      9.7811      9.3659      9.0065      8.7028    
  8.4524      8.2516      8.0959      7.9815      7.9061      7.8685      7.8685      7.9061      7.9815      8.0959    
  8.2516      8.4524      8.7028      9.0065      8.5332      9.0216      9.5711      10.180      10.845      11.563    
  12.318      13.053      13.710      14.253      14.671      14.974      15.177      15.302      15.369      15.390    
  15.369      15.302      15.177      14.974      14.671      14.253      13.710      13.053      12.318      11.563    
  10.845      10.180      9.5711      9.0216      8.5332      8.1070      7.7428      7.4383      7.1898      6.9926    
  6.8426      6.7367      6.6735      6.6524      6.6735      6.7367      6.8426      6.9926      7.1898      7.4383    
  7.7428      8.1070      7.8510      8.4064      9.0288      9.7156      10.463      11.263      12.090      12.880    
  13.583      14.170      14.631      14.974      15.210      15.356      15.426      15.426      15.356      15.210    
  14.974      14.631      14.170      13.583      12.880      12.090      11.263      10.463      9.7156      9.0288    
  8.4064      7.8510      7.3640      6.9449      6.5916      6.3000      6.0651      5.8820      5.7469      5.6575    
  5.6129      5.6129      5.6575      5.7469      5.8820      6.0651      6.3000      6.5916      6.9449      7.3640    
  7.3116      7.9290      8.6182      9.3755      10.195      11.066      11.952      12.792      13.540      14.170    
  14.671      15.047      15.304      15.453      15.502      15.453      15.304      15.047      14.671      14.170    
  13.540      12.792      11.952      11.066      10.195      9.3755      8.6182      7.9290      7.3116      6.7679    
  6.2979      5.8993      5.5677      5.2977      5.0837      4.9209      4.8060      4.7375      4.7147      4.7375    
  4.8060      4.9209      5.0837      5.2977      5.5677      5.8993      6.2979      6.7679      6.9059      7.5811    
  8.3320      9.1532      10.037      10.968      11.906      12.792      13.583      14.253      14.787      15.183    
  15.443      15.571      15.571      15.443      15.183      14.787      14.253      13.583      12.792      11.906    
  10.968      10.037      9.1532      8.3320      7.5811      6.9059      6.3090      5.7908      5.3490      4.9794    
  4.6761      4.4326      4.2434      4.1041      4.0122      3.9665      3.9665      4.0122      4.1041      4.2434    
  4.4326      4.6761      4.9794      5.3490      5.7908      6.3090      6.6247      7.3548      8.1635      9.0436    
  9.9842      10.968      11.952      12.880      13.710      14.410      14.964      15.361      15.600      15.680    
  15.600      15.361      14.964      14.410      13.710      12.880      11.952      10.968      9.9842      9.0436    
  8.1635      7.3548      6.6247      5.9767      5.4120      4.9286      4.5220      4.1861      3.9140      3.6992    
  3.5365      3.4221      3.3540      3.3314      3.3540      3.4221      3.5365      3.6992      3.9140      4.1861    
  4.5220      4.9286      5.4120      5.9767      6.4597      7.2435      8.1079      9.0436      10.037      11.066    
  12.090      13.053      13.911      14.628      15.181      15.556      15.745      15.745      15.556      15.181    
  14.628      13.911      13.053      12.090      11.066      10.037      9.0436      8.1079      7.2435      6.4597    
  5.7615      5.1508      4.6259      4.1824      3.8141      3.5135      3.2734      3.0876      2.9515      2.8621    
  2.8177      2.8177      2.8621      2.9515      3.0876      3.2734      3.5135      3.8141      4.1824      4.6259    
  5.1508      5.7615      6.4053      7.2435      8.1635      9.1532      10.195      11.263      12.318      13.305    
  14.175      14.887      15.415      15.739      15.848      15.739      15.415      14.887      14.175      13.305    
  12.318      11.263      10.195      9.1532      8.1635      7.2435      6.4053      5.6559      4.9980      4.4305    
  3.9491      3.5473      3.2175      2.9517      2.7429      2.5854      2.4754      2.4103      2.3887      2.4103    
  2.4754      2.5854      2.7429      2.9517      3.2175      3.5473      3.9491      4.4305      4.9980      5.6559    
  6.4597      7.3548      8.3320      9.3755      10.463      11.563      12.637      13.630      14.489      15.172    
  15.645      15.887      15.887      15.645      15.172      14.489      13.630      12.637      11.563      10.463    
  9.3755      8.3320      7.3548      6.4597      5.6559      4.9478      4.3348      3.8130      3.3756      3.0146    
  2.7217      2.4889      2.3098      2.1795      2.0944      2.0523      2.0523      2.0944      2.1795      2.3098    
  2.4889      2.7217      3.0146      3.3756      3.8130      4.3348      4.9478      5.6559      6.6247      7.5811    
  8.6182      9.7156      10.845      11.970      13.047      14.024      14.848      15.471      15.859      15.990    
  15.859      15.471      14.848      14.024      13.047      11.970      10.845      9.7156      8.6182      7.5811    
  6.6247      5.7615      4.9980      4.3348      3.7682      3.2916      2.8964      2.5737      2.3150      2.1131    
  1.9619      1.8571      1.7954      1.7750      1.7954      1.8571      1.9619      2.1131      2.3150      2.5737    
  2.8964      3.2916      3.7682      4.3348      4.9980      5.7615      6.9059      7.9290      9.0288      10.180    
  11.347      12.489      13.555      14.494      15.253      15.787      16.062      16.062      15.787      15.253    
  14.494      13.555      12.489      11.347      10.180      9.0288      7.9290      6.9059      5.9767      5.1508    
  4.4305      3.8130      3.2916      2.8575      2.5013      2.2137      1.9866      1.8131      1.6879      1.6067    
  1.5668      1.5668      1.6067      1.6879      1.8131      1.9866      2.2137      2.5013      2.8575      3.2916    
  3.8130      4.4305      5.1508      5.9767      7.3116      8.4064      9.5711      10.774      11.973      13.120    
  14.163      15.045      15.718      16.139      16.283      16.139      15.718      15.045      14.163      13.120    
  11.973      10.774      9.5711      8.4064      7.3116      6.3090      5.4120      4.6259      3.9491      3.3756    
  2.8964      2.5013      2.1804      1.9247      1.7264      1.5791      1.4777      1.4184      1.3990      1.4184    
  1.4777      1.5791      1.7264      1.9247      2.1804      2.5013      2.8964      3.3756      3.9491      4.6259    
  5.4120      6.3090      7.8510      9.0216      10.251      11.500      12.723      13.864      14.867      15.677    
  16.247      16.542      16.542      16.247      15.677      14.867      13.864      12.723      11.500      10.251    
  9.0216      7.8510      6.7679      5.7908      4.9286      4.1824      3.5473      3.0146      2.5737      2.2137    
  1.9247      1.6979      1.5258      1.4026      1.3232      1.2844      1.2844      1.3232      1.4026      1.5258    
  1.6979      1.9247      2.2137      2.5737      3.0146      3.5473      4.1824      4.9286      5.7908      6.7679    
  8.5332      9.7811      11.072      12.362      13.595      14.716      15.664      16.386      16.838      16.992    
  16.838      16.386      15.664      14.716      13.595      12.362      11.072      9.7811      8.5332      7.3640    
  6.2979      5.3490      4.5220      3.8141      3.2175      2.7217      2.3150      1.9866      1.7264      1.5258    
  1.3779      1.2766      1.2177      1.1984      1.2177      1.2766      1.3779      1.5258      1.7264      1.9866    
  2.3150      2.7217      3.2175      3.8141      4.5220      5.3490      6.2979      7.3640      9.3659      10.690    
  12.039      13.359      14.592      15.677      16.554      17.170      17.489      17.489      17.170      16.554    
  15.677      14.592      13.359      12.039      10.690      9.3659      8.1070      6.9449      5.8993      4.9794    
  4.1861      3.5135      2.9517      2.4889      2.1131      1.8131      1.5791      1.4026      1.2766      1.1959    
  1.1564      1.1564      1.1959      1.2766      1.4026      1.5791      1.8131      2.1131      2.4889      2.9517    
  3.5135      4.1861      4.9794      5.8993      6.9449      8.1070      10.357      11.756      13.156      14.497    
  15.718      16.752      17.540      18.034      18.202      18.034      17.540      16.752      15.718      14.497    
  13.156      11.756      10.357      9.0065      7.7428      6.5916      5.5677      4.6761      3.9140      3.2734    
  2.7429      2.3098      1.9619      1.6879      1.4777      1.3232      1.2177      1.1564      1.1364      1.1564    
  1.2177      1.3232      1.4777      1.6879      1.9619      2.3098      2.7429      3.2734      3.9140      4.6761    
  5.5677      6.5916      7.7428      9.0065      11.516      12.988      14.434      15.787      16.974      17.928    
  18.594      18.936      18.936      18.594      17.928      16.974      15.787      14.434      12.988      11.516    
  10.073      8.7028      7.4383      6.3000      5.2977      4.4326      3.6992      3.0876      2.5854      2.1795    
  1.8571      1.6067      1.4184      1.2844      1.1984      1.1564      1.1564      1.1984      1.2844      1.4184    
  1.6067      1.8571      2.1795      2.5854      3.0876      3.6992      4.4326      5.2977      6.3000      7.4383    
  8.7028      10.073      12.859      14.398      15.859      17.162      18.242      19.047      19.542      19.709    
  19.542      19.047      18.242      17.162      15.859      14.398      12.859      11.320      9.8380      8.4524    
  7.1898      6.0651      5.0837      4.2434      3.5365      2.9515      2.4754      2.0944      1.7954      1.5668    
  1.3990      1.2844      1.2177      1.1959      1.2177      1.2844      1.3990      1.5668      1.7954      2.0944    
  2.4754      2.9515      3.5365      4.2434      5.0837      6.0651      7.1898      8.4524      9.8380      11.320    
  14.363      15.887      17.253      18.399      19.282      19.879      20.179      20.179      19.879      19.282    
  18.399      17.253      15.887      14.363      12.761      11.165      9.6492      8.2516      6.9926      5.8820    
  4.9209      4.1041      3.4221      2.8621      2.4103      2.0523      1.7750      1.5668      1.4184      1.3232    
  1.2766      1.2766      1.3232      1.4184      1.5668      1.7750      2.0523      2.4103      2.8621      3.4221    
  4.1041      4.9209      5.8820      6.9926      8.2516      9.6492      11.165      12.761      15.848      17.217    
  18.358      19.239      19.855      20.216      20.334      20.216      19.855      19.239      18.358      17.217    
  15.848      14.308      12.677      11.046      9.5021      8.0959      6.8426      5.7469      4.8060      4.0122    
  3.3540      2.8177      2.3887      2.0523      1.7954      1.6067      1.4777      1.4026      1.3779      1.4026    
  1.4777      1.6067      1.7954      2.0523      2.3887      2.8177      3.3540      4.0122      4.8060      5.7469    
  6.8426      8.0959      9.5021      11.046      12.677      14.308      17.063      18.126      18.914      19.446    
  19.762      19.906      19.906      19.762      19.446      18.914      18.126      17.063      15.745      14.229    
  12.599      10.954      9.3921      7.9815      6.7367      5.6575      4.7375      3.9665      3.3314      2.8177    
  2.4103      2.0944      1.8571      1.6879      1.5791      1.5258      1.5258      1.5791      1.6879      1.8571    
  2.0944      2.4103      2.8177      3.3314      3.9665      4.7375      5.6575      6.7367      7.9815      9.3921    
  10.954      12.599      14.229      15.745      17.748      18.359      18.698      18.843      18.882      18.886    
  18.882      18.843      18.698      18.359      17.748      16.824      15.600      14.136      12.527      10.884    
  9.3154      7.9061      6.6735      5.6129      4.7147      3.9665      3.3540      2.8621      2.4754      2.1795    
  1.9619      1.8131      1.7264      1.6979      1.7264      1.8131      1.9619      2.1795      2.4754      2.8621    
  3.3540      3.9665      4.7147      5.6129      6.6735      7.9061      9.3154      10.884      12.527      14.136    
  15.600      16.824      17.662      17.712      17.558      17.343      17.197      17.197      17.343      17.558    
  17.712      17.662      17.293      16.550      15.443      14.045      12.467      10.835      9.2700      7.8685    
  6.6524      5.6129      4.7375      4.0122      3.4221      2.9515      2.5854      2.3098      2.1131      1.9866    
  1.9247      1.9247      1.9866      2.1131      2.3098      2.5854      2.9515      3.4221      4.0122      4.7375    
  5.6129      6.6524      7.8685      9.2700      10.835      12.467      14.045      15.443      16.550      17.293    
  16.623      16.064      15.450      14.981      14.806      14.981      15.450      16.064      16.623      16.930    
  16.840      16.291      15.304      13.973      12.427      10.810      9.2548      7.8685      6.6735      5.6575    
  4.8060      4.1041      3.5365      3.0876      2.7429      2.4889      2.3150      2.2137      2.1804      2.2137    
  2.3150      2.4889      2.7429      3.0876      3.5365      4.1041      4.8060      5.6575      6.6735      7.8685    
  9.2548      10.810      12.427      13.973      15.304      16.291      16.840      16.930      14.551      13.421    
  12.466      11.920      11.920      12.466      13.421      14.551      15.582      16.272      16.460      16.091    
  15.210      13.933      12.413      10.810      9.2700      7.9061      6.7367      5.7469      4.9209      4.2434    
  3.6992      3.2734      2.9517      2.7217      2.5737      2.5013      2.5013      2.5737      2.7217      2.9517    
  3.2734      3.6992      4.2434      4.9209      5.7469      6.7367      7.9061      9.2700      10.810      12.413    
  13.933      15.210      16.091      16.460      16.272      15.582      11.502      9.9383      8.8423      8.4484    
  8.8423      9.9383      11.502      13.209      14.725      15.779      16.209      15.984      15.177      13.933    
  12.427      10.835      9.3154      7.9815      6.8426      5.8820      5.0837      4.4326      3.9140      3.5135    
  3.2175      3.0146      2.8964      2.8575      2.8964      3.0146      3.2175      3.5135      3.9140      4.4326    
  5.0837      5.8820      6.8426      7.9815      9.3154      10.835      12.427      13.933      15.177      15.984    
  16.209      15.779      14.725      13.209      7.7018      5.9279      4.9450      4.9450      5.9279      7.7018    
  9.9297      12.210      14.164      15.515      16.121      15.984      15.210      13.973      12.467      10.884    
  9.3921      8.0959      6.9926      6.0651      5.2977      4.6761      4.1861      3.8141      3.5473      3.3756    
  3.2916      3.2916      3.3756      3.5473      3.8141      4.1861      4.6761      5.2977      6.0651      6.9926    
  8.0959      9.3921      10.884      12.467      13.973      15.210      15.984      16.121      15.515      14.164    
  12.210      9.9297      3.5333      1.8292      1.2246      1.8292      3.5333      6.0330      8.9001      11.677    
  13.969      15.515      16.209      16.091      15.304      14.045      12.527      10.954      9.5021      8.2516    
  7.1898      6.3000      5.5677      4.9794      4.5220      4.1824      3.9491      3.8130      3.7682      3.8130    
  3.9491      4.1824      4.5220      4.9794      5.5677      6.3000      7.1898      8.2516      9.5021      10.954    
  12.527      14.045      15.304      16.091      16.209      15.515      13.969      11.677      8.9001      6.0330    
 -.50568     -1.8529     -1.8529     -.50568      1.9611      5.1422      8.5419      11.677      14.164      15.779    
  16.460      16.291      15.443      14.136      12.599      11.046      9.6492      8.4524      7.4383      6.5916    
  5.8993      5.3490      4.9286      4.6259      4.4305      4.3348      4.3348      4.4305      4.6259      4.9286    
  5.3490      5.8993      6.5916      7.4383      8.4524      9.6492      11.046      12.599      14.136      15.443    
  16.291      16.460      15.779      14.164      11.677      8.5419      5.1422      1.9611     -3.8829     -4.6321    
 -3.8829     -1.7557      1.4134      5.1422      8.9001      12.210      14.725      16.272      16.840      16.550    
  15.600      14.229      12.677      11.165      9.8380      8.7028      7.7428      6.9449      6.2979      5.7908    
  5.4120      5.1508      4.9980      4.9478      4.9980      5.1508      5.4120      5.7908      6.2979      6.9449    
  7.7428      8.7028      9.8380      11.165      12.677      14.229      15.600      16.550      16.840      16.272    
  14.725      12.210      8.9001      5.1422      1.4134     -1.7557     -6.1265     -6.1265     -4.5918     -1.7557    
  1.9611      6.0330      9.9297      13.209      15.582      16.930      17.293      16.824      15.745      14.308    
  12.761      11.320      10.073      9.0065      8.1070      7.3640      6.7679      6.3090      5.9767      5.7615    
  5.6559      5.6559      5.7615      5.9767      6.3090      6.7679      7.3640      8.1070      9.0065      10.073    
  11.320      12.761      14.308      15.745      16.824      17.293      16.930      15.582      13.209      9.9297    
  6.0330      1.9611     -1.7557     -4.5918     -6.1265     -4.6321     -1.8529      1.8292      5.9279      9.9383    
  13.421      16.064      17.712      18.359      18.126      17.217      15.887      14.398      12.988      11.756    
  10.690      9.7811      9.0216      8.4064      7.9290      7.5811      7.3548      7.2435      7.2435      7.3548    
  7.5811      7.9290      8.4064      9.0216      9.7811      10.690      11.756      12.988      14.398      15.887    
  17.217      18.126      18.359      17.712      16.064      13.421      9.9383      5.9279      1.8292     -1.8529    
 -4.6321     -6.1265     -4.6321     -2.5451     0.62095      4.4524      8.4720      12.218      15.314      17.517    
  18.731      19.000      18.475      17.384      15.990      14.556      13.267      12.141      11.166      10.337    
  9.6511      9.1037      8.6891      8.4002      8.2300      8.1739      8.2300      8.4002      8.6891      9.1037    
  9.6511      10.337      11.166      12.141      13.267      14.556      15.990      17.384      18.475      19.000    
  18.731      17.517      15.314      12.218      8.4720      4.4524     0.62096     -2.5451     -4.6321     -5.3607    
 -1.8529     0.62095      3.9275      7.6545      11.361      14.648      17.210      18.874      19.599      19.472    
  18.674      17.449      16.062      14.750      13.591      12.576      11.699      10.959      10.353      9.8796    
  9.5326      9.3059      9.1940      9.1940      9.3059      9.5326      9.8796      10.353      10.959      11.699    
  12.576      13.591      14.750      16.062      17.449      18.674      19.472      19.599      18.874      17.210    
  14.648      11.361      7.6544      3.9275     0.62095     -1.8529     -3.1761     -3.1761      1.8292      4.4524    