unknown system                          
   1.00000000000000     
     0.000000    2.816500    2.816500
     2.816500    0.000000    2.816500
     2.816500    2.816500    0.000000
   Ge
     2
Direct
  0.000000  0.000000  0.000000
  0.250000  0.250000  0.250000
 
   48   48   48
 -.69125362173E+01 -.61263258432E+01 -.38827496714E+01 -.50554046167E+00 0.35334203862E+01
 0.77018344874E+01 0.11502123437E+02 0.14550736233E+02 0.16623526794E+02 0.17661847208E+02
 0.17747662064E+02 0.17063111968E+02 0.15848206717E+02 0.14363537495E+02 0.12858862797E+02
 0.11516455514E+02 0.10356973783E+02 0.93659494670E+01 0.85332430070E+01 0.78510717750E+01
 0.73115890718E+01 0.69058838512E+01 0.66246350433E+01 0.64596342340E+01 0.64052923647E+01
 0.64596342716E+01 0.66246350489E+01 0.69058837805E+01 0.73115889646E+01 0.78510717052E+01
 0.85332430089E+01 0.93659495292E+01 0.10356973880E+02 0.11516455604E+02 0.12858862809E+02
 0.14363537383E+02 0.15848206533E+02 0.17063111844E+02 0.17747662078E+02 0.17661847296E+02
 0.16623526835E+02 0.14550736205E+02 0.11502123447E+02 0.77018346265E+01 0.35334205961E+01
 -.50554033104E+00 -.38827496869E+01 -.61263259143E+01 -.61263258432E+01 -.46319562154E+01
 -.18527602723E+01 0.18292896240E+01 0.59279233133E+01 0.99383344428E+01 0.13421051712E+02
 0.16064118097E+02 0.17711622807E+02 0.18359047559E+02 0.18125742758E+02 0.17217311867E+02
 0.15886790974E+02 0.14398177177E+02 0.12988625332E+02 0.11756291377E+02 0.10690543687E+02
 0.97811518068E+01 0.90216427579E+01 0.84064749136E+01 0.79289760902E+01 0.75811326992E+01
 0.73548199601E+01 0.72434803999E+01 0.72434804629E+01 0.73548200598E+01 0.75811327041E+01
 0.79289760143E+01 0.84064748621E+01 0.90216427465E+01 0.97811517680E+01 0.10690543636E+02
 0.11756291423E+02 0.12988625488E+02 0.14398177276E+02 0.15886790873E+02 0.17217311660E+02
 0.18125742687E+02 0.18359047708E+02 0.17711622934E+02 0.16064117790E+02 0.13421050767E+02
 0.99383332330E+01 0.59279227946E+01 0.18292907316E+01 -.18527575654E+01 -.46319532835E+01
 -.61263245717E+01 -.38827496714E+01 -.18527602723E+01 0.12246459951E+01 0.49450497618E+01
 0.88422285338E+01 0.12465748172E+02 0.15449675852E+02 0.17557621515E+02 0.18698159353E+02
 0.18914541827E+02 0.18357925442E+02 0.17252665491E+02 0.15858721219E+02 0.14433778394E+02
 0.13155794458E+02 0.12038814484E+02 0.11072421589E+02 0.10251007131E+02 0.95711802428E+01
 0.90288922053E+01 0.86182163759E+01 0.83319938283E+01 0.81634581261E+01 0.81078476982E+01
 0.81634581632E+01 0.83319938889E+01 0.86182164309E+01 0.90288922274E+01 0.95711802305E+01
 0.10251007100E+02 0.11072421546E+02 0.12038814440E+02 0.13155794456E+02 0.14433778471E+02
 0.15858721321E+02 0.17252665493E+02 0.18357925321E+02 0.18914541764E+02 0.18698159508E+02
 0.17557621678E+02 0.15449675479E+02 0.12465747006E+02 0.88422272161E+01 0.49450495856E+01
 0.12246477652E+01 -.18527572483E+01 -.38827473234E+01 -.45916215821E+01 -.50554046167E+00
 0.18292896240E+01 0.49450497618E+01 0.84483441118E+01 0.11920065419E+02 0.14980647330E+02
 0.17342840489E+02 0.18842615390E+02 0.19446432024E+02 0.19239159962E+02 0.18398709491E+02
 0.17162145269E+02 0.15786807799E+02 0.14497517467E+02 0.13359012293E+02 0.12361714545E+02
 0.11500507002E+02 0.10773727684E+02 0.10179921319E+02 0.97156815519E+01 0.93755228512E+01
 0.91532235772E+01 0.90435455026E+01 0.90435454783E+01 0.91532235568E+01 0.93755228983E+01
 0.97156816307E+01 0.10179921366E+02 0.10773727719E+02 0.11500507066E+02 0.12361714571E+02
 0.13359012192E+02 0.14497517312E+02 0.15786807771E+02 0.17162145377E+02 0.18398709514E+02
 0.19239159789E+02 0.19446431884E+02 0.18842615573E+02 0.17342840879E+02 0.14980647450E+02
 0.11920065004E+02 0.84483435077E+01 0.49450496069E+01 0.18292901703E+01 -.50553963805E+00
 -.17555308523E+01 -.17555312407E+01 0.35334203862E+01 0.59279233133E+01 0.88422285338E+01
 0.11920065419E+02 0.14805979977E+02 0.17197005647E+02 0.18881793966E+02 0.19761934625E+02
 0.19855076492E+02 0.19282185051E+02 0.18241767685E+02 0.16974142551E+02 0.15717732577E+02
 0.14592384530E+02 0.13595635416E+02 0.12722685173E+02 0.11973073721E+02 0.11347550794E+02
 0.10845239537E+02 0.10462701723E+02 0.10194831533E+02 0.10036535009E+02 0.99841991758E+01
 0.10036535017E+02 0.10194831519E+02 0.10462701685E+02 0.10845239541E+02 0.11347550911E+02
 0.11973073926E+02 0.12722685334E+02 0.13595635403E+02 0.14592384350E+02 0.15717732379E+02
 0.16974142469E+02 0.18241767693E+02 0.19282184990E+02 0.19855076271E+02 0.19761934375E+02
 0.18881793955E+02 0.17197006012E+02 0.14805980550E+02 0.11920065838E+02 0.88422285353E+01
 0.59279229229E+01 0.35334198653E+01 0.19612654422E+01 0.14135748367E+01 0.19612657930E+01
 0.77018344874E+01 0.99383344428E+01 0.12465748172E+02 0.14980647330E+02 0.17197005647E+02
 0.18885998244E+02 0.19905474623E+02 0.20215566900E+02 0.19879082862E+02 0.19046612428E+02
 0.17927704229E+02 0.16751810013E+02 0.15677187273E+02 0.14715952804E+02 0.13863667814E+02
 0.13120593563E+02 0.12489071155E+02 0.11970363046E+02 0.11563034542E+02 0.11263269995E+02
 0.11066082299E+02 0.10968132968E+02 0.10968133018E+02 0.11066082349E+02 0.11263269907E+02
 0.11563034381E+02 0.11970363030E+02 0.12489071384E+02 0.13120593900E+02 0.13863668044E+02
 0.14715952820E+02 0.15677187116E+02 0.16751809802E+02 0.17927704098E+02 0.19046612426E+02
 0.19879082856E+02 0.20215566663E+02 0.19905474106E+02 0.18885997728E+02 0.17197005518E+02
 0.14980647716E+02 0.12465748856E+02 0.99383351167E+01 0.77018349849E+01 0.60331655700E+01
 0.51423516956E+01 0.51423515958E+01 0.60331652734E+01 0.11502123437E+02 0.13421051712E+02
 0.15449675852E+02 0.17342840489E+02 0.18881793966E+02 0.19905474623E+02 0.20333803822E+02
 0.20179050309E+02 0.19542289422E+02 0.18593871600E+02 0.17540126312E+02 0.16553814209E+02
 0.15663993392E+02 0.14866772434E+02 0.14162794223E+02 0.13555315725E+02 0.13047065392E+02
 0.12636760741E+02 0.12318541216E+02 0.12090055073E+02 0.11951948806E+02 0.11905685212E+02
 0.11951948851E+02 0.12090055035E+02 0.12318541018E+02 0.12636760507E+02 0.13047065363E+02
 0.13555316025E+02 0.14162794710E+02 0.14866772809E+02 0.15663993455E+02 0.16553814008E+02
 0.17540126075E+02 0.18593871528E+02 0.19542289533E+02 0.20179050444E+02 0.20333803741E+02
 0.19905474150E+02 0.18881793127E+02 0.17342839595E+02 0.15449675432E+02 0.13421052232E+02
 0.11502124920E+02 0.99298606528E+01 0.89002763405E+01 0.85421419178E+01 0.89002750560E+01
 0.99298587976E+01 0.14550736233E+02 0.16064118097E+02 0.17557621515E+02 0.18842615390E+02
 0.19761934625E+02 0.20215566900E+02 0.20179050309E+02 0.19709553315E+02 0.18936136731E+02
 0.18034208658E+02 0.17170540632E+02 0.16385887513E+02 0.15677187273E+02 0.15045285516E+02
 0.14493760747E+02 0.14024554189E+02 0.13629892072E+02 0.13305336795E+02 0.13053454437E+02
 0.12880216546E+02 0.12791728060E+02 0.12791728075E+02 0.12880216532E+02 0.13053454272E+02
 0.13305336446E+02 0.13629891722E+02 0.14024554156E+02 0.14493761172E+02 0.15045286158E+02
 0.15677187704E+02 0.16385887520E+02 0.17170540363E+02 0.18034208393E+02 0.18936136640E+02
 0.19709553455E+02 0.20179050685E+02 0.20215567344E+02 0.19761934696E+02 0.18842614675E+02
 0.17557620170E+02 0.16064116986E+02 0.14550736299E+02 0.13209556269E+02 0.12209889551E+02
 0.11676908889E+02 0.11676908107E+02 0.12209887815E+02 0.13209554895E+02 0.16623526794E+02
 0.17711622807E+02 0.18698159353E+02 0.19446432024E+02 0.19855076492E+02 0.19879082862E+02
 0.19542289422E+02 0.18936136731E+02 0.18202503456E+02 0.17489091846E+02 0.16838052002E+02
 0.16247268740E+02 0.15717732577E+02 0.15252846544E+02 0.14848043875E+02 0.14489462800E+02
 0.14174643367E+02 0.13910753748E+02 0.13709593687E+02 0.13583100320E+02 0.13539894638E+02
 0.13583100408E+02 0.13709593655E+02 0.13910753398E+02 0.14174642767E+02 0.14489462320E+02
 0.14848043900E+02 0.15252847110E+02 0.15717733309E+02 0.16247269180E+02 0.16838051983E+02
 0.17489091530E+02 0.18202503083E+02 0.18936136460E+02 0.19542289402E+02 0.19879083261E+02
 0.19855077276E+02 0.19446432743E+02 0.18698159381E+02 0.17711621942E+02 0.16623525564E+02
 0.15582190973E+02 0.14725686785E+02 0.14164444636E+02 0.13969255468E+02 0.14164444361E+02
 0.14725686821E+02 0.15582191758E+02 0.17661847208E+02 0.18359047559E+02 0.18914541827E+02
 0.19239159962E+02 0.19282185051E+02 0.19046612428E+02 0.18593871600E+02 0.18034208658E+02
 0.17489091846E+02 0.16992065962E+02 0.16541714371E+02 0.16139164010E+02 0.15786807799E+02
 0.15470927342E+02 0.15172043001E+02 0.14887519554E+02 0.14627802309E+02 0.14410116445E+02
 0.14252610748E+02 0.14169850167E+02 0.14169850308E+02 0.14252610982E+02 0.14410116383E+02
 0.14627801746E+02 0.14887518712E+02 0.15172042411E+02 0.15470927426E+02 0.15786808513E+02
 0.16139164878E+02 0.16541714892E+02 0.16992065984E+02 0.17489091549E+02 0.18034208236E+02
 0.18593871102E+02 0.19046611948E+02 0.19282184924E+02 0.19239160532E+02 0.18914542961E+02
 0.18359048546E+02 0.17661847305E+02 0.16930646047E+02 0.16272517953E+02 0.15778787639E+02
 0.15514941617E+02 0.15514942050E+02 0.15778788798E+02 0.16272519361E+02 0.16930646973E+02
 0.17747662064E+02 0.18125742758E+02 0.18357925442E+02 0.18398709491E+02 0.18241767685E+02
 0.17927704229E+02 0.17540126312E+02 0.17170540632E+02 0.16838052002E+02 0.16541714371E+02
 0.16282754847E+02 0.16062357515E+02 0.15858721219E+02 0.15644996455E+02 0.15415358665E+02
 0.15181177875E+02 0.14963735220E+02 0.14786936754E+02 0.14671572013E+02 0.14631503487E+02
 0.14671572406E+02 0.14786937171E+02 0.14963735179E+02 0.15181177170E+02 0.15415357614E+02
 0.15644995737E+02 0.15858721341E+02 0.16062358376E+02 0.16282755839E+02 0.16541714944E+02
 0.16838052094E+02 0.17170540512E+02 0.17540126100E+02 0.17927703751E+02 0.18241766850E+02
 0.18398708678E+02 0.18357925298E+02 0.18125743545E+02 0.17747663295E+02 0.17293462594E+02
 0.16840683185E+02 0.16460722189E+02 0.16209384197E+02 0.16121651425E+02 0.16209384931E+02
 0.16460723016E+02 0.16840683328E+02 0.17293461793E+02 0.17063111968E+02 0.17217311867E+02
 0.17252665491E+02 0.17162145269E+02 0.16974142551E+02 0.16751810013E+02 0.16553814209E+02
 0.16385887513E+02 0.16247268740E+02 0.16139164010E+02 0.16062357515E+02 0.15990346049E+02
 0.15886790974E+02 0.15739142405E+02 0.15556404850E+02 0.15361531734E+02 0.15182858634E+02
 0.15046943646E+02 0.14973711106E+02 0.14973711410E+02 0.15046944371E+02 0.15182859281E+02
 0.15361531741E+02 0.15556404013E+02 0.15739141155E+02 0.15886790129E+02 0.15990346156E+02
 0.16062358383E+02 0.16139164939E+02 0.16247269221E+02 0.16385887641E+02 0.16553814383E+02
 0.16751810326E+02 0.16974142596E+02 0.17162144615E+02 0.17252664275E+02 0.17217310814E+02
 0.17063111780E+02 0.16824297279E+02 0.16549787931E+02 0.16290847641E+02 0.16091729211E+02
 0.15984035156E+02 0.15984035100E+02 0.16091728887E+02 0.16290846841E+02 0.16549786844E+02
 0.16824296542E+02 0.15848206717E+02 0.15886790974E+02 0.15858721219E+02 0.15786807799E+02
 0.15717732577E+02 0.15677187273E+02 0.15663993392E+02 0.15677187273E+02 0.15717732577E+02
 0.15786807799E+02 0.15858721219E+02 0.15886790974E+02 0.15848206717E+02 0.15745658993E+02
 0.15600407572E+02 0.15442934689E+02 0.15304350232E+02 0.15210217275E+02 0.15176963633E+02
 0.15210217902E+02 0.15304351200E+02 0.15442935452E+02 0.15600407562E+02 0.15745658059E+02
 0.15848205368E+02 0.15886790064E+02 0.15858721257E+02 0.15786808535E+02 0.15717733299E+02
 0.15677187520E+02 0.15663993366E+02 0.15677187520E+02 0.15717733299E+02 0.15786808535E+02
 0.15858721257E+02 0.15886790064E+02 0.15848205368E+02 0.15745658059E+02 0.15600407562E+02
 0.15442935452E+02 0.15304351200E+02 0.15210217902E+02 0.15176963633E+02 0.15210217275E+02
 0.15304350232E+02 0.15442934689E+02 0.15600407572E+02 0.15745658993E+02 0.14363537495E+02
 0.14398177177E+02 0.14433778394E+02 0.14497517467E+02 0.14592384530E+02 0.14715952804E+02
 0.14866772434E+02 0.15045285516E+02 0.15252846544E+02 0.15470927342E+02 0.15644996455E+02
 0.15739142405E+02 0.15745658993E+02 0.15679985913E+02 0.15571477791E+02 0.15453699337E+02
 0.15356774272E+02 0.15302622301E+02 0.15302622556E+02 0.15356774993E+02 0.15453700304E+02
 0.15571478532E+02 0.15679985909E+02 0.15745658113E+02 0.15739141138E+02 0.15644995606E+02
 0.15470927377E+02 0.15252847197E+02 0.15045286051E+02 0.14866772353E+02 0.14715952317E+02
 0.14592384341E+02 0.14497518068E+02 0.14433779551E+02 0.14398178102E+02 0.14363537526E+02
 0.14308508787E+02 0.14229613764E+02 0.14136405272E+02 0.14045098544E+02 0.13972733738E+02
 0.13932856702E+02 0.13932856497E+02 0.13972733365E+02 0.14045098520E+02 0.14136405922E+02
 0.14229614862E+02 0.14308509635E+02 0.12858862797E+02 0.12988625332E+02 0.13155794458E+02
 0.13359012293E+02 0.13595635416E+02 0.13863667814E+02 0.14162794223E+02 0.14493760747E+02
 0.14848043875E+02 0.15172043001E+02 0.15415358665E+02 0.15556404850E+02 0.15600407572E+02
 0.15571477791E+02 0.15502551175E+02 0.15426422891E+02 0.15369549244E+02 0.15348692566E+02
 0.15369549516E+02 0.15426423498E+02 0.15502552022E+02 0.15571478490E+02 0.15600407639E+02
 0.15556404138E+02 0.15415357604E+02 0.15172042320E+02 0.14848044003E+02 0.14493761427E+02
 0.14162794732E+02 0.13863667595E+02 0.13595634573E+02 0.13359011512E+02 0.13155794439E+02
 0.12988626213E+02 0.12858864039E+02 0.12760992653E+02 0.12677657602E+02 0.12599617403E+02
 0.12527415665E+02 0.12467289948E+02 0.12427080342E+02 0.12412914841E+02 0.12427080465E+02
 0.12467290376E+02 0.12527416413E+02 0.12599618076E+02 0.12677657636E+02 0.12760991837E+02
 0.11516455514E+02 0.11756291377E+02 0.12038814484E+02 0.12361714545E+02 0.12722685173E+02
 0.13120593563E+02 0.13555315725E+02 0.14024554189E+02 0.14489462800E+02 0.14887519554E+02
 0.15181177875E+02 0.15361531734E+02 0.15442934689E+02 0.15453699337E+02 0.15426422891E+02
 0.15390385973E+02 0.15366858806E+02 0.15366858813E+02 0.15390386117E+02 0.15426423363E+02
 0.15453700087E+02 0.15442935328E+02 0.15361531810E+02 0.15181177282E+02 0.14887518679E+02
 0.14489462256E+02 0.14024554356E+02 0.13555316469E+02 0.13120594324E+02 0.12722685345E+02
 0.12361713901E+02 0.12038813371E+02 0.11756290513E+02 0.11516455471E+02 0.11319994872E+02
 0.11164924585E+02 0.11046152290E+02 0.10954359653E+02 0.10884089664E+02 0.10835195557E+02
 0.10809831441E+02 0.10809831594E+02 0.10835195944E+02 0.10884090035E+02 0.10954359634E+02
 0.11046151657E+02 0.11164923569E+02 0.11319994105E+02 0.10356973783E+02 0.10690543687E+02
 0.11072421589E+02 0.11500507002E+02 0.11973073721E+02 0.12489071155E+02 0.13047065392E+02
 0.13629892072E+02 0.14174643367E+02 0.14627802309E+02 0.14963735220E+02 0.15182858634E+02
 0.15304350232E+02 0.15356774272E+02 0.15369549244E+02 0.15366858806E+02 0.15364197308E+02
 0.15366858668E+02 0.15369549272E+02 0.15356774693E+02 0.15304350892E+02 0.15182859111E+02
 0.14963735189E+02 0.14627801783E+02 0.14174642642E+02 0.13629891545E+02 0.13047065392E+02
 0.12489071781E+02 0.11973074705E+02 0.11500507767E+02 0.11072421596E+02 0.10690542857E+02
 0.10356972606E+02 0.10073023701E+02 0.98380869154E+01 0.96492949682E+01 0.95022169066E+01
 0.93921886128E+01 0.93155404131E+01 0.92700707705E+01 0.92549387989E+01 0.92700708872E+01
 0.93155403890E+01 0.93921882024E+01 0.95022161811E+01 0.96492943666E+01 0.98380869472E+01
 0.10073024512E+02 0.93659494670E+01 0.97811518068E+01 0.10251007131E+02 0.10773727684E+02
 0.11347550794E+02 0.11970363046E+02 0.12636760741E+02 0.13305336795E+02 0.13910753748E+02
 0.14410116445E+02 0.14786936754E+02 0.15046943646E+02 0.15210217275E+02 0.15302622301E+02
 0.15348692566E+02 0.15366858813E+02 0.15366858668E+02 0.15348692327E+02 0.15302622328E+02
 0.15210217674E+02 0.15046944162E+02 0.14786937054E+02 0.14410116395E+02 0.13910753409E+02
 0.13305336268E+02 0.12636760144E+02 0.11970362612E+02 0.11347550845E+02 0.10773728375E+02
 0.10251008203E+02 0.97811526578E+01 0.93659495653E+01 0.90066142343E+01 0.87028782923E+01
 0.84525081319E+01 0.82516591481E+01 0.80959297283E+01 0.79815548919E+01 0.79061249449E+01
 0.78685571447E+01 0.78685570930E+01 0.79061247344E+01 0.79815544986E+01 0.80959293709E+01
 0.82516592156E+01 0.84525088149E+01 0.87028792987E+01 0.90066149327E+01 0.85332430070E+01
 0.90216427579E+01 0.95711802428E+01 0.10179921319E+02 0.10845239537E+02 0.11563034542E+02
 0.12318541216E+02 0.13053454437E+02 0.13709593687E+02 0.14252610748E+02 0.14671572013E+02
 0.14973711106E+02 0.15176963633E+02 0.15302622556E+02 0.15369549516E+02 0.15390386117E+02
 0.15369549272E+02 0.15302622328E+02 0.15176963681E+02 0.14973711439E+02 0.14671572408E+02
 0.14252610995E+02 0.13709593761E+02 0.13053454405E+02 0.12318541025E+02 0.11563034032E+02
 0.10845238728E+02 0.10179920618E+02 0.95711802059E+01 0.90216435724E+01 0.85332442256E+01
 0.81070888650E+01 0.77428577595E+01 0.74383790428E+01 0.71898367850E+01 0.69926450109E+01
 0.68425970865E+01 0.67367292378E+01 0.66735205092E+01 0.66524752759E+01 0.66735203627E+01
 0.67367290640E+01 0.68425971089E+01 0.69926454236E+01 0.71898375153E+01 0.74383796536E+01
 0.77428577124E+01 0.81070880025E+01 0.78510717750E+01 0.84064749136E+01 0.90288922053E+01
 0.97156815519E+01 0.10462701723E+02 0.11263269995E+02 0.12090055073E+02 0.12880216546E+02
 0.13583100320E+02 0.14169850167E+02 0.14631503487E+02 0.14973711410E+02 0.15210217902E+02
 0.15356774993E+02 0.15426423498E+02 0.15426423363E+02 0.15356774693E+02 0.15210217674E+02
 0.14973711439E+02 0.14631503742E+02 0.14169850440E+02 0.13583100474E+02 0.12880216681E+02
 0.12090055366E+02 0.11263270356E+02 0.10462701743E+02 0.97156809097E+01 0.90288911034E+01
 0.84064740278E+01 0.78510716985E+01 0.73640040135E+01 0.69449459684E+01 0.65916307462E+01
 0.63000261879E+01 0.60651094254E+01 0.58819842462E+01 0.57468618507E+01 0.56574880114E+01
 0.56129172569E+01 0.56129172379E+01 0.56574880289E+01 0.57468620413E+01 0.58819846221E+01
 0.60651097602E+01 0.63000261204E+01 0.65916300839E+01 0.69449449568E+01 0.73640032726E+01
 0.73115890718E+01 0.79289760902E+01 0.86182163759E+01 0.93755228512E+01 0.10194831533E+02
 0.11066082299E+02 0.11951948806E+02 0.12791728060E+02 0.13539894638E+02 0.14169850308E+02
 0.14671572406E+02 0.15046944371E+02 0.15304351200E+02 0.15453700304E+02 0.15502552022E+02
 0.15453700087E+02 0.15304350892E+02 0.15046944162E+02 0.14671572408E+02 0.14169850440E+02
 0.13539894699E+02 0.12791727976E+02 0.11951948799E+02 0.11066082696E+02 0.10194832345E+02
 0.93755235885E+01 0.86182164003E+01 0.79289752124E+01 0.73115877942E+01 0.67679445432E+01
 0.62979301284E+01 0.58992626646E+01 0.55676912617E+01 0.52977186098E+01 0.50836904152E+01
 0.49208599217E+01 0.48060188339E+01 0.47375014249E+01 0.47147019095E+01 0.47375014632E+01
 0.48060189480E+01 0.49208600686E+01 0.50836903992E+01 0.52977182153E+01 0.55676905300E+01
 0.58992620265E+01 0.62979301492E+01 0.67679454182E+01 0.69058838512E+01 0.75811326992E+01
 0.83319938283E+01 0.91532235772E+01 0.10036535009E+02 0.10968132968E+02 0.11905685212E+02
 0.12791728075E+02 0.13583100408E+02 0.14252610982E+02 0.14786937171E+02 0.15182859281E+02
 0.15442935452E+02 0.15571478532E+02 0.15571478490E+02 0.15442935328E+02 0.15182859111E+02
 0.14786937054E+02 0.14252610995E+02 0.13583100474E+02 0.12791727976E+02 0.11905684833E+02
 0.10968132532E+02 0.10036534991E+02 0.91532242647E+01 0.83319949442E+01 0.75811335342E+01
 0.69058838395E+01 0.63089854062E+01 0.57907448059E+01 0.53490076004E+01 0.49794038763E+01
 0.46760478129E+01 0.44325973621E+01 0.42433619546E+01 0.41040885197E+01 0.40121900136E+01
 0.39664439584E+01 0.39664439636E+01 0.40121900165E+01 0.41040884690E+01 0.42433617684E+01
 0.44325970225E+01 0.46760474907E+01 0.49794039064E+01 0.53490082149E+01 0.57907458188E+01
 0.63089862126E+01 0.66246350433E+01 0.73548199601E+01 0.81634581261E+01 0.90435455026E+01
 0.99841991758E+01 0.10968133018E+02 0.11951948851E+02 0.12880216532E+02 0.13709593655E+02
 0.14410116383E+02 0.14963735179E+02 0.15361531741E+02 0.15600407562E+02 0.15679985909E+02
 0.15600407639E+02 0.15361531810E+02 0.14963735189E+02 0.14410116395E+02 0.13709593761E+02
 0.12880216681E+02 0.11951948799E+02 0.10968132532E+02 0.99841983495E+01 0.90435448312E+01
 0.81634581656E+01 0.73548208325E+01 0.66246362619E+01 0.59767267103E+01 0.54119896737E+01
 0.49285187148E+01 0.45219258522E+01 0.41860468756E+01 0.39139759461E+01 0.36991821097E+01
 0.35363909139E+01 0.34219950364E+01 0.33539527290E+01 0.33313520226E+01 0.33539527318E+01
 0.34219949920E+01 0.35363907817E+01 0.36991819540E+01 0.39139759691E+01 0.41860472776E+01
 0.45219265754E+01 0.49285193371E+01 0.54119896616E+01 0.59767258860E+01 0.64596342340E+01
 0.72434803999E+01 0.81078476982E+01 0.90435454783E+01 0.10036535017E+02 0.11066082349E+02
 0.12090055035E+02 0.13053454272E+02 0.13910753398E+02 0.14627801746E+02 0.15181177170E+02
 0.15556404013E+02 0.15745658059E+02 0.15745658113E+02 0.15556404138E+02 0.15181177282E+02
 0.14627801783E+02 0.13910753409E+02 0.13053454405E+02 0.12090055366E+02 0.11066082696E+02
 0.10036534991E+02 0.90435448312E+01 0.81078466623E+01 0.72434796119E+01 0.64596342382E+01
 0.57615028507E+01 0.51507462827E+01 0.46258040264E+01 0.41823391002E+01 0.38139897259E+01
 0.35133984238E+01 0.32733204113E+01 0.30875485210E+01 0.29514459082E+01 0.28620203113E+01
 0.28176434836E+01 0.28176434942E+01 0.28620203230E+01 0.29514459009E+01 0.30875485449E+01
 0.32733205792E+01 0.35133987746E+01 0.38139900735E+01 0.41823390809E+01 0.46258034069E+01
 0.51507452753E+01 0.57615020685E+01 0.64052923647E+01 0.72434804629E+01 0.81634581632E+01
 0.91532235568E+01 0.10194831519E+02 0.11263269907E+02 0.12318541018E+02 0.13305336446E+02
 0.14174642767E+02 0.14887518712E+02 0.15415357614E+02 0.15739141155E+02 0.15848205368E+02
 0.15739141138E+02 0.15415357604E+02 0.14887518679E+02 0.14174642642E+02 0.13305336268E+02
 0.12318541025E+02 0.11263270356E+02 0.10194832345E+02 0.91532242647E+01 0.81634581656E+01
 0.72434796119E+01 0.64052911481E+01 0.56558937793E+01 0.49979694263E+01 0.44304272950E+01
 0.39490343317E+01 0.35472729061E+01 0.32174044805E+01 0.29515761946E+01 0.27427559985E+01
 0.25853286646E+01 0.24752956965E+01 0.24101471191E+01 0.23885650780E+01 0.24101471210E+01
 0.24752957021E+01 0.25853287085E+01 0.27427561245E+01 0.29515763529E+01 0.32174044719E+01
 0.35472725193E+01 0.39490336135E+01 0.44304266682E+01 0.49979694338E+01 0.56558946046E+01
 0.64596342716E+01 0.73548200598E+01 0.83319938889E+01 0.93755228983E+01 0.10462701685E+02
 0.11563034381E+02 0.12636760507E+02 0.13629891722E+02 0.14489462320E+02 0.15172042411E+02
 0.15644995737E+02 0.15886790129E+02 0.15886790064E+02 0.15644995606E+02 0.15172042320E+02
 0.14489462256E+02 0.13629891545E+02 0.12636760144E+02 0.11563034032E+02 0.10462701743E+02
 0.93755235885E+01 0.83319949442E+01 0.73548208325E+01 0.64596342382E+01 0.56558937793E+01
 0.49477295562E+01 0.43347448805E+01 0.38128952816E+01 0.33755287569E+01 0.30145491072E+01
 0.27215557507E+01 0.24887834398E+01 0.23097185445E+01 0.21793664690E+01 0.20942385104E+01
 0.20521816854E+01 0.20521816785E+01 0.20942384966E+01 0.21793664663E+01 0.23097185579E+01
 0.24887834161E+01 0.27215555854E+01 0.30145487642E+01 0.33755284141E+01 0.38128952934E+01
 0.43347454835E+01 0.49477305553E+01 0.56558945759E+01 0.66246350489E+01 0.75811327041E+01
 0.86182164309E+01 0.97156816307E+01 0.10845239541E+02 0.11970363030E+02 0.13047065363E+02
 0.14024554156E+02 0.14848043900E+02 0.15470927426E+02 0.15858721341E+02 0.15990346156E+02
 0.15858721257E+02 0.15470927377E+02 0.14848044003E+02 0.14024554356E+02 0.13047065392E+02
 0.11970362612E+02 0.10845238728E+02 0.97156809097E+01 0.86182164003E+01 0.75811335342E+01
 0.66246362619E+01 0.57615028507E+01 0.49979694263E+01 0.43347448805E+01 0.37681680061E+01
 0.32915037715E+01 0.28962913805E+01 0.25735855316E+01 0.23149319322E+01 0.21129905377E+01
 0.19618225818E+01 0.18569375886E+01 0.17952227341E+01 0.17748517299E+01 0.17952227233E+01
 0.18569375827E+01 0.19618225796E+01 0.21129904954E+01 0.23149318011E+01 0.25735853622E+01
 0.28962913755E+01 0.32915041497E+01 0.37681687274E+01 0.43347455178E+01 0.49979694243E+01
 0.57615020230E+01 0.69058837805E+01 0.79289760143E+01 0.90288922274E+01 0.10179921366E+02
 0.11347550911E+02 0.12489071384E+02 0.13555316025E+02 0.14493761172E+02 0.15252847110E+02
 0.15786808513E+02 0.16062358376E+02 0.16062358383E+02 0.15786808535E+02 0.15252847197E+02
 0.14493761427E+02 0.13555316469E+02 0.12489071781E+02 0.11347550845E+02 0.10179920618E+02
 0.90288911034E+01 0.79289752124E+01 0.69058838395E+01 0.59767267103E+01 0.51507462827E+01
 0.44304272950E+01 0.38128952816E+01 0.32915037715E+01 0.28574473536E+01 0.25011968703E+01
 0.22135838573E+01 0.19864621521E+01 0.18129981973E+01 0.16877283503E+01 0.16065352021E+01
 0.15666415040E+01 0.15666415004E+01 0.16065352009E+01 0.16877283615E+01 0.18129982076E+01
 0.19864621441E+01 0.22135838689E+01 0.25011970069E+01 0.28574476728E+01 0.32915041200E+01
 0.38128953025E+01 0.44304267169E+01 0.51507452685E+01 0.59767258693E+01 0.73115889646E+01
 0.84064748621E+01 0.95711802305E+01 0.10773727719E+02 0.11973073926E+02 0.13120593900E+02
 0.14162794710E+02 0.15045286158E+02 0.15717733309E+02 0.16139164878E+02 0.16282755839E+02
 0.16139164939E+02 0.15717733299E+02 0.15045286051E+02 0.14162794732E+02 0.13120594324E+02
 0.11973074705E+02 0.10773728375E+02 0.95711802059E+01 0.84064740278E+01 0.73115877942E+01
 0.63089854062E+01 0.54119896737E+01 0.46258040264E+01 0.39490343317E+01 0.33755287569E+01
 0.28962913805E+01 0.25011968703E+01 0.21802850384E+01 0.19245421701E+01 0.17262304038E+01
 0.15789393430E+01 0.14775582968E+01 0.14183024815E+01 0.13988179545E+01 0.14183024858E+01
 0.14775583062E+01 0.15789393497E+01 0.17262304098E+01 0.19245422169E+01 0.21802851732E+01
 0.25011970390E+01 0.28962913779E+01 0.33755283736E+01 0.39490336203E+01 0.46258034051E+01
 0.54119896679E+01 0.63089861913E+01 0.78510717052E+01 0.90216427465E+01 0.10251007100E+02
 0.11500507066E+02 0.12722685334E+02 0.13863668044E+02 0.14866772809E+02 0.15677187704E+02
 0.16247269180E+02 0.16541714892E+02 0.16541714944E+02 0.16247269221E+02 0.15677187520E+02
 0.14866772353E+02 0.13863667595E+02 0.12722685345E+02 0.11500507767E+02 0.10251008203E+02
 0.90216435724E+01 0.78510716985E+01 0.67679445432E+01 0.57907448059E+01 0.49285187148E+01
 0.41823391002E+01 0.35472729061E+01 0.30145491072E+01 0.25735855316E+01 0.22135838573E+01
 0.19245421701E+01 0.16977156598E+01 0.15257053911E+01 0.14024123458E+01 0.13230432202E+01
 0.12842336152E+01 0.12842336204E+01 0.13230432294E+01 0.14024123429E+01 0.15257053702E+01
 0.16977156469E+01 0.19245421956E+01 0.22135838758E+01 0.25735854079E+01 0.30145487662E+01
 0.35472725267E+01 0.41823390809E+01 0.49285193268E+01 0.57907458388E+01 0.67679453547E+01
 0.85332430089E+01 0.97811517680E+01 0.11072421546E+02 0.12361714571E+02 0.13595635403E+02
 0.14715952820E+02 0.15663993455E+02 0.16385887520E+02 0.16838051983E+02 0.16992065984E+02
 0.16838052094E+02 0.16385887641E+02 0.15663993366E+02 0.14715952317E+02 0.13595634573E+02
 0.12361713901E+02 0.11072421596E+02 0.97811526578E+01 0.85332442256E+01 0.73640040135E+01
 0.62979301284E+01 0.53490076004E+01 0.45219258522E+01 0.38139897259E+01 0.32174044805E+01
 0.27215557507E+01 0.23149319322E+01 0.19864621521E+01 0.17262304038E+01 0.15257053911E+01
 0.13777269722E+01 0.12764794569E+01 0.12175780972E+01 0.11982602165E+01 0.12175781054E+01
 0.12764794564E+01 0.13777269572E+01 0.15257053783E+01 0.17262303981E+01 0.19864621108E+01
 0.23149318016E+01 0.27215555761E+01 0.32174044630E+01 0.38139900896E+01 0.45219265723E+01
 0.53490082663E+01 0.62979301805E+01 0.73640032310E+01 0.93659495292E+01 0.10690543636E+02
 0.12038814440E+02 0.13359012192E+02 0.14592384350E+02 0.15677187116E+02 0.16553814008E+02
 0.17170540363E+02 0.17489091530E+02 0.17489091549E+02 0.17170540512E+02 0.16553814383E+02
 0.15677187520E+02 0.14592384341E+02 0.13359011512E+02 0.12038813371E+02 0.10690542857E+02
 0.93659495653E+01 0.81070888650E+01 0.69449459684E+01 0.58992626646E+01 0.49794038763E+01
 0.41860468756E+01 0.35133984238E+01 0.29515761946E+01 0.24887834398E+01 0.21129905377E+01
 0.18129981973E+01 0.15789393430E+01 0.14024123458E+01 0.12764794569E+01 0.11957061892E+01
 0.11563006116E+01 0.11563006161E+01 0.11957061952E+01 0.12764794582E+01 0.14024123536E+01
 0.15789393615E+01 0.18129981967E+01 0.21129904934E+01 0.24887834100E+01 0.29515763136E+01
 0.35133987503E+01 0.41860472314E+01 0.49794038953E+01 0.58992620979E+01 0.69449449968E+01
 0.81070880765E+01 0.10356973880E+02 0.11756291423E+02 0.13155794456E+02 0.14497517312E+02
 0.15717732379E+02 0.16751809802E+02 0.17540126075E+02 0.18034208393E+02 0.18202503083E+02
 0.18034208236E+02 0.17540126100E+02 0.16751810326E+02 0.15717733299E+02 0.14497518068E+02
 0.13155794439E+02 0.11756290513E+02 0.10356972606E+02 0.90066142343E+01 0.77428577595E+01
 0.65916307462E+01 0.55676912617E+01 0.46760478129E+01 0.39139759461E+01 0.32733204113E+01
 0.27427559985E+01 0.23097185445E+01 0.19618225818E+01 0.16877283503E+01 0.14775582968E+01
 0.13230432202E+01 0.12175780972E+01 0.11563006116E+01 0.11362132372E+01 0.11563006093E+01
 0.12175780998E+01 0.13230432358E+01 0.14775583200E+01 0.16877283609E+01 0.19618225778E+01
 0.23097185768E+01 0.27427561278E+01 0.32733205872E+01 0.39139759496E+01 0.46760474110E+01
 0.55676905002E+01 0.65916300727E+01 0.77428577483E+01 0.90066150840E+01 0.11516455604E+02
 0.12988625488E+02 0.14433778471E+02 0.15786807771E+02 0.16974142469E+02 0.17927704098E+02
 0.18593871528E+02 0.18936136640E+02 0.18936136460E+02 0.18593871102E+02 0.17927703751E+02
 0.16974142596E+02 0.15786808535E+02 0.14433779551E+02 0.12988626213E+02 0.11516455471E+02
 0.10073023701E+02 0.87028782923E+01 0.74383790428E+01 0.63000261879E+01 0.52977186098E+01
 0.44325973621E+01 0.36991821097E+01 0.30875485210E+01 0.25853286646E+01 0.21793664690E+01
 0.18569375886E+01 0.16065352021E+01 0.14183024815E+01 0.12842336152E+01 0.11982602165E+01
 0.11563006161E+01 0.11563006093E+01 0.11982602042E+01 0.12842336126E+01 0.14183024913E+01
 0.16065352076E+01 0.18569375782E+01 0.21793664662E+01 0.25853287022E+01 0.30875485603E+01
 0.36991820156E+01 0.44325970381E+01 0.52977181997E+01 0.63000260826E+01 0.74383795627E+01