   2   2   0   0
  0.2234237E+02  0.3983133E-09  0.3983133E-09  0.3983133E-09  0.5000000E-15
  1.000000000000000E-004
  CAR 
 unknown system                          
     62.74392645    -12.36639904  301      3.97846808      1.00000000
    -12.366  0.0000E+00  0.0000E+00  0.0000E+00  0.0000E+00
    -12.116  0.0000E+00  0.0000E+00  0.0000E+00  0.0000E+00
    -11.866  0.0000E+00  0.0000E+00  0.0000E+00  0.0000E+00
    -11.615  0.0000E+00  0.0000E+00  0.0000E+00  0.0000E+00
    -11.365  0.0000E+00  0.0000E+00  0.0000E+00  0.0000E+00
    -11.115  0.0000E+00  0.0000E+00  0.0000E+00  0.0000E+00
    -10.864  0.0000E+00  0.0000E+00  0.0000E+00  0.0000E+00
    -10.614  0.0000E+00  0.0000E+00  0.0000E+00  0.0000E+00
    -10.363  0.0000E+00  0.0000E+00  0.0000E+00  0.0000E+00
    -10.113  0.0000E+00  0.0000E+00  0.0000E+00  0.0000E+00
     -9.863  0.0000E+00  0.0000E+00  0.0000E+00  0.0000E+00
     -9.612  0.0000E+00  0.0000E+00  0.0000E+00  0.0000E+00
     -9.362 -0.1001E-29 -0.1002E-29 -0.2507E-30 -0.2509E-30
     -9.112 -0.1978E-05 -0.1978E-05 -0.4951E-06 -0.4952E-06
     -8.861  0.6326E-01  0.6326E-01  0.1584E-01  0.1584E-01
     -8.611 -0.8515E-03 -0.8514E-03  0.1562E-01  0.1562E-01
     -8.361 -0.1745E-04 -0.1745E-04  0.1562E-01  0.1562E-01
     -8.110  0.5058E+00  0.5058E+00  0.1423E+00  0.1423E+00
     -7.860  0.3795E+00  0.3795E+00  0.2373E+00  0.2373E+00
     -7.609 -0.1160E-01 -0.1160E-01  0.2344E+00  0.2344E+00
     -7.359 -0.8089E-17 -0.8093E-17  0.2344E+00  0.2344E+00
     -7.109 -0.2612E-01 -0.2612E-01  0.2278E+00  0.2278E+00
     -6.858  0.8124E+00  0.8124E+00  0.4312E+00  0.4312E+00
     -6.608  0.2122E+00  0.2122E+00  0.4844E+00  0.4844E+00
     -6.358  0.1551E+01  0.1551E+01  0.8726E+00  0.8726E+00
     -6.107 -0.5295E-01 -0.5295E-01  0.8594E+00  0.8594E+00
     -5.857  0.0000E+00  0.0000E+00  0.8594E+00  0.8594E+00
     -5.606 -0.2554E-60 -0.2557E-60  0.8594E+00  0.8594E+00
     -5.356 -0.4934E-20 -0.4937E-20  0.8594E+00  0.8594E+00
     -5.106 -0.5310E-02 -0.5311E-02  0.8580E+00  0.8580E+00
     -4.855  0.1154E+01  0.1154E+01  0.1147E+01  0.1147E+01
     -4.605 -0.2577E-01 -0.2577E-01  0.1141E+01  0.1141E+01
     -4.355 -0.9682E-65 -0.9692E-65  0.1141E+01  0.1141E+01
     -4.104 -0.1138E-22 -0.1139E-22  0.1141E+01  0.1141E+01
     -3.854 -0.9401E-03 -0.9403E-03  0.1140E+01  0.1140E+01
     -3.604  0.2428E+00  0.2428E+00  0.1201E+01  0.1201E+01
     -3.353  0.1506E+01  0.1506E+01  0.1578E+01  0.1578E+01
     -3.103 -0.2643E-03 -0.2642E-03  0.1578E+01  0.1578E+01
     -2.852 -0.1111E-08 -0.1112E-08  0.1578E+01  0.1578E+01
     -2.602  0.6419E+00  0.6419E+00  0.1739E+01  0.1739E+01
     -2.352  0.1070E+00  0.1070E+00  0.1766E+01  0.1766E+01
     -2.101  0.0000E+00  0.0000E+00  0.1766E+01  0.1766E+01
     -1.851  0.0000E+00  0.0000E+00  0.1766E+01  0.1766E+01
     -1.601  0.0000E+00  0.0000E+00  0.1766E+01  0.1766E+01
     -1.350 -0.2232E-50 -0.2234E-50  0.1766E+01  0.1766E+01
     -1.100 -0.1702E-14 -0.1703E-14  0.1766E+01  0.1766E+01
     -0.849 -0.5300E-02 -0.5294E-02  0.1764E+01  0.1764E+01
     -0.599  0.8790E+00  0.8790E+00  0.1984E+01  0.1984E+01
     -0.349 -0.1527E-13 -0.1528E-13  0.1984E+01  0.1984E+01
     -0.098  0.2619E-01  0.2620E-01  0.1991E+01  0.1991E+01
      0.152  0.2777E+01  0.2777E+01  0.2686E+01  0.2686E+01
      0.402  0.1923E+00  0.1922E+00  0.2734E+01  0.2734E+01
      0.653 -0.1643E-03 -0.1643E-03  0.2734E+01  0.2734E+01
      0.903  0.3756E+00  0.3756E+00  0.2828E+01  0.2828E+01
      1.153 -0.1007E-02 -0.1006E-02  0.2828E+01  0.2828E+01
      1.404 -0.4829E-01 -0.4829E-01  0.2816E+01  0.2816E+01
      1.654  0.1546E+01  0.1546E+01  0.3203E+01  0.3203E+01
      1.905  0.7755E+00  0.7755E+00  0.3397E+01  0.3397E+01
      2.155 -0.2655E-01 -0.2655E-01  0.3391E+01  0.3391E+01
      2.405  0.5336E+00  0.5336E+00  0.3524E+01  0.3524E+01
      2.656  0.7146E+00  0.7146E+00  0.3703E+01  0.3703E+01
      2.906 -0.1491E-02 -0.1491E-02  0.3703E+01  0.3703E+01
      3.156  0.1001E+01  0.1001E+01  0.3953E+01  0.3953E+01
      3.407 -0.8599E-03 -0.8598E-03  0.3953E+01  0.3953E+01
      3.657 -0.8166E-14 -0.8164E-14  0.3953E+01  0.3953E+01
      3.908  0.1696E-01  0.1695E-01  0.3957E+01  0.3957E+01
      4.158  0.3774E+00  0.3774E+00  0.4052E+01  0.4052E+01
      4.408  0.1049E+00  0.1049E+00  0.4078E+01  0.4078E+01
      4.659  0.6816E+00  0.6816E+00  0.4249E+01  0.4249E+01
      4.909  0.4038E+00  0.4038E+00  0.4350E+01  0.4350E+01
      5.159  0.1627E+00  0.1627E+00  0.4391E+01  0.4391E+01
      5.410  0.1517E+01  0.1517E+01  0.4770E+01  0.4770E+01
      5.660 -0.1943E-01 -0.1943E-01  0.4766E+01  0.4766E+01
      5.910  0.4814E+00  0.4814E+00  0.4886E+01  0.4886E+01
      6.161  0.2675E+00  0.2675E+00  0.4953E+01  0.4953E+01
      6.411  0.3182E-02  0.3195E-02  0.4954E+01  0.4954E+01
      6.662  0.2144E+00  0.2144E+00  0.5008E+01  0.5008E+01
      6.912  0.3441E+00  0.3441E+00  0.5094E+01  0.5094E+01
      7.162 -0.1612E-24 -0.1617E-24  0.5094E+01  0.5094E+01
      7.413 -0.7363E-03 -0.7370E-03  0.5094E+01  0.5094E+01
      7.663  0.1455E+01  0.1455E+01  0.5458E+01  0.5458E+01
      7.913  0.4359E-01  0.4353E-01  0.5469E+01  0.5469E+01
      8.164  0.5202E+00  0.5204E+00  0.5599E+01  0.5599E+01
      8.414  0.1727E+01  0.1727E+01  0.6031E+01  0.6031E+01
      8.664  0.7452E+00  0.7452E+00  0.6218E+01  0.6218E+01
      8.915  0.7520E+00  0.7520E+00  0.6406E+01  0.6406E+01
      9.165  0.7551E+00  0.7551E+00  0.6595E+01  0.6595E+01
      9.416  0.2177E+01  0.2177E+01  0.7140E+01  0.7140E+01
      9.666  0.4677E+00  0.4677E+00  0.7257E+01  0.7257E+01
      9.916  0.8448E+00  0.8448E+00  0.7469E+01  0.7469E+01
     10.167  0.1426E+01  0.1427E+01  0.7826E+01  0.7826E+01
     10.417  0.1298E+00  0.1297E+00  0.7859E+01  0.7859E+01
     10.667  0.3450E-02  0.3466E-02  0.7859E+01  0.7859E+01
     10.918 -0.1303E-02 -0.1301E-02  0.7859E+01  0.7859E+01
     11.168  0.6263E+00  0.6263E+00  0.8016E+01  0.8016E+01
     11.419 -0.2646E-01 -0.2646E-01  0.8009E+01  0.8009E+01
     11.669  0.7745E+00  0.7745E+00  0.8203E+01  0.8203E+01
     11.919  0.6992E-01  0.6979E-01  0.8221E+01  0.8221E+01
     12.170  0.1418E+01  0.1418E+01  0.8576E+01  0.8576E+01
     12.420  0.1023E-01  0.1017E-01  0.8578E+01  0.8578E+01
     12.670 -0.7442E-49 -0.7479E-49  0.8578E+01  0.8578E+01
     12.921 -0.5589E-14 -0.5604E-14  0.8578E+01  0.8578E+01
     13.171  0.1144E-01  0.1146E-01  0.8581E+01  0.8581E+01
     13.421  0.6864E+00  0.6863E+00  0.8753E+01  0.8753E+01
     13.672  0.5503E+00  0.5504E+00  0.8891E+01  0.8891E+01
     13.922  0.1240E+00  0.1239E+00  0.8922E+01  0.8922E+01
     14.173  0.1701E+01  0.1701E+01  0.9348E+01  0.9348E+01
     14.423  0.4216E+00  0.4217E+00  0.9453E+01  0.9453E+01
     14.673  0.4069E+00  0.4069E+00  0.9555E+01  0.9555E+01
     14.924  0.6715E+00  0.6715E+00  0.9723E+01  0.9723E+01
     15.174  0.1796E+01  0.1796E+01  0.1017E+02  0.1017E+02
     15.424  0.1058E+01  0.1057E+01  0.1044E+02  0.1044E+02
     15.675  0.2129E+00  0.2129E+00  0.1049E+02  0.1049E+02
     15.925  0.2428E+01  0.2428E+01  0.1110E+02  0.1110E+02
     16.176  0.4348E+00  0.4348E+00  0.1121E+02  0.1121E+02
     16.426  0.1507E+01  0.1507E+01  0.1158E+02  0.1158E+02
     16.676  0.1139E+01  0.1139E+01  0.1187E+02  0.1187E+02
     16.927  0.1523E+01  0.1523E+01  0.1225E+02  0.1225E+02
     17.177  0.1498E+01  0.1498E+01  0.1263E+02  0.1263E+02
     17.427  0.4437E+00  0.4435E+00  0.1274E+02  0.1274E+02
     17.678  0.1060E+01  0.1060E+01  0.1300E+02  0.1300E+02
     17.928  0.5229E-01  0.5230E-01  0.1302E+02  0.1302E+02
     18.178 -0.1192E-03 -0.1200E-03  0.1302E+02  0.1302E+02
     18.429 -0.2914E-17 -0.2923E-17  0.1302E+02  0.1302E+02
     18.679 -0.3197E-01 -0.3198E-01  0.1301E+02  0.1301E+02
     18.930  0.1031E+01  0.1031E+01  0.1327E+02  0.1327E+02
     19.180  0.0000E+00  0.0000E+00  0.1327E+02  0.1327E+02
     19.430  0.0000E+00  0.0000E+00  0.1327E+02  0.1327E+02
     19.681 -0.6871E-48 -0.6872E-48  0.1327E+02  0.1327E+02
     19.931 -0.4375E-13 -0.4374E-13  0.1327E+02  0.1327E+02
     20.181  0.7756E-01  0.7748E-01  0.1329E+02  0.1329E+02
     20.432  0.1420E+01  0.1420E+01  0.1364E+02  0.1364E+02
     20.682  0.1521E+01  0.1521E+01  0.1402E+02  0.1402E+02
     20.933 -0.2351E-01 -0.2353E-01  0.1402E+02  0.1402E+02
     21.183  0.7535E+00  0.7535E+00  0.1420E+02  0.1420E+02
     21.433  0.7687E+00  0.7687E+00  0.1440E+02  0.1440E+02
     21.684  0.1863E+01  0.1863E+01  0.1486E+02  0.1486E+02
     21.934  0.1857E+01  0.1857E+01  0.1533E+02  0.1533E+02
     22.184 -0.2899E-11 -0.2903E-11  0.1533E+02  0.1533E+02
     22.435  0.2794E+00  0.2795E+00  0.1540E+02  0.1540E+02
     22.685  0.3700E+01  0.3700E+01  0.1632E+02  0.1632E+02
     22.935  0.1074E+01  0.1074E+01  0.1659E+02  0.1659E+02
     23.186  0.1540E+01  0.1540E+01  0.1698E+02  0.1698E+02
     23.436  0.2450E+01  0.2450E+01  0.1759E+02  0.1759E+02
     23.687  0.1050E+01  0.1050E+01  0.1785E+02  0.1785E+02
     23.937  0.1394E+01  0.1394E+01  0.1820E+02  0.1820E+02
     24.187 -0.3004E-02 -0.2994E-02  0.1820E+02  0.1820E+02
     24.438  0.2044E+00  0.2042E+00  0.1825E+02  0.1825E+02
     24.688  0.1700E+01  0.1700E+01  0.1868E+02  0.1868E+02
     24.938 -0.3195E-01 -0.3195E-01  0.1867E+02  0.1867E+02
     25.189  0.4814E+00  0.4815E+00  0.1879E+02  0.1879E+02
     25.439  0.7632E+00  0.7631E+00  0.1898E+02  0.1898E+02
     25.689  0.2004E+01  0.2004E+01  0.1949E+02  0.1949E+02
     25.940 -0.3410E-02 -0.3410E-02  0.1948E+02  0.1948E+02
     26.190  0.0000E+00  0.0000E+00  0.1948E+02  0.1948E+02
     26.441 -0.4471E-70 -0.4388E-70  0.1948E+02  0.1948E+02
     26.691 -0.1192E-25 -0.1179E-25  0.1948E+02  0.1948E+02
     26.941 -0.3253E-03 -0.3243E-03  0.1948E+02  0.1948E+02
     27.192  0.1507E+01  0.1507E+01  0.1986E+02  0.1986E+02
     27.442 -0.8603E-02 -0.8611E-02  0.1986E+02  0.1986E+02
     27.692  0.1097E+01  0.1097E+01  0.2013E+02  0.2013E+02
     27.943  0.1150E+01  0.1150E+01  0.2042E+02  0.2042E+02
     28.193  0.9701E+00  0.9704E+00  0.2066E+02  0.2066E+02
     28.444  0.7149E+00  0.7146E+00  0.2084E+02  0.2084E+02
     28.694  0.4009E+00  0.4010E+00  0.2094E+02  0.2094E+02
     28.944  0.2150E+01  0.2150E+01  0.2148E+02  0.2148E+02
     29.195  0.1326E+00  0.1326E+00  0.2152E+02  0.2152E+02
     29.445  0.1371E+01  0.1371E+01  0.2186E+02  0.2186E+02
     29.695  0.1603E+01  0.1603E+01  0.2226E+02  0.2226E+02
     29.946  0.1521E+01  0.1521E+01  0.2264E+02  0.2264E+02
     30.196  0.1397E+01  0.1397E+01  0.2299E+02  0.2299E+02
     30.446  0.8551E+00  0.8548E+00  0.2320E+02  0.2320E+02
     30.697  0.2672E+01  0.2672E+01  0.2387E+02  0.2387E+02
     30.947  0.1241E+01  0.1241E+01  0.2418E+02  0.2418E+02
     31.198  0.4944E+00  0.4944E+00  0.2431E+02  0.2431E+02
     31.448  0.6949E+00  0.6949E+00  0.2448E+02  0.2448E+02
     31.698  0.2440E+01  0.2440E+01  0.2509E+02  0.2509E+02
     31.949  0.2917E+01  0.2917E+01  0.2582E+02  0.2582E+02
     32.199  0.1480E+01  0.1480E+01  0.2619E+02  0.2619E+02
     32.449  0.3490E+00  0.3491E+00  0.2628E+02  0.2628E+02
     32.700 -0.2354E-02 -0.2353E-02  0.2628E+02  0.2628E+02
     32.950  0.8840E+00  0.8840E+00  0.2650E+02  0.2650E+02
     33.201  0.1195E+01  0.1195E+01  0.2680E+02  0.2680E+02
     33.451  0.1423E+01  0.1423E+01  0.2716E+02  0.2716E+02
     33.701  0.7440E+00  0.7440E+00  0.2734E+02  0.2734E+02
     33.952  0.8524E+00  0.8525E+00  0.2756E+02  0.2756E+02
     34.202  0.1461E+00  0.1460E+00  0.2759E+02  0.2759E+02
     34.452 -0.3769E-17 -0.3741E-17  0.2759E+02  0.2759E+02
     34.703 -0.4732E-01 -0.4729E-01  0.2758E+02  0.2758E+02
     34.953  0.1545E+01  0.1545E+01  0.2797E+02  0.2797E+02
     35.203  0.2275E+00  0.2274E+00  0.2803E+02  0.2803E+02
     35.454  0.7718E+00  0.7719E+00  0.2822E+02  0.2822E+02
     35.704 -0.1144E-01 -0.1143E-01  0.2822E+02  0.2822E+02
     35.955  0.3851E+00  0.3851E+00  0.2831E+02  0.2831E+02
     36.205  0.2565E+00  0.2565E+00  0.2838E+02  0.2838E+02
     36.455  0.6254E+00  0.6254E+00  0.2853E+02  0.2853E+02
     36.706  0.1979E+01  0.1979E+01  0.2903E+02  0.2903E+02
     36.956  0.1361E+01  0.1361E+01  0.2937E+02  0.2937E+02
     37.206  0.1755E+01  0.1756E+01  0.2981E+02  0.2981E+02
     37.457  0.1981E+01  0.1981E+01  0.3030E+02  0.3030E+02
     37.707  0.7333E-02  0.7451E-02  0.3031E+02  0.3031E+02
     37.958  0.2215E+01  0.2215E+01  0.3086E+02  0.3086E+02
     38.208  0.1208E+01  0.1208E+01  0.3116E+02  0.3116E+02
     38.458  0.6920E+00  0.6919E+00  0.3134E+02  0.3134E+02
     38.709  0.1945E+01  0.1945E+01  0.3182E+02  0.3182E+02
     38.959  0.1116E+01  0.1116E+01  0.3210E+02  0.3210E+02
     39.209  0.2237E+01  0.2237E+01  0.3266E+02  0.3266E+02
     39.460  0.3594E+01  0.3594E+01  0.3356E+02  0.3356E+02
     39.710  0.1213E+01  0.1212E+01  0.3387E+02  0.3387E+02
     39.960  0.3820E+01  0.3820E+01  0.3482E+02  0.3482E+02
     40.211  0.1092E+01  0.1092E+01  0.3510E+02  0.3510E+02
     40.461  0.4884E+00  0.4884E+00  0.3522E+02  0.3522E+02
     40.712 -0.6148E-45 -0.6196E-45  0.3522E+02  0.3522E+02
     40.962 -0.1358E-11 -0.1363E-11  0.3522E+02  0.3522E+02
     41.212  0.2351E+00  0.2353E+00  0.3528E+02  0.3528E+02
     41.463  0.5138E+00  0.5136E+00  0.3541E+02  0.3541E+02
     41.713  0.6069E-01  0.6066E-01  0.3542E+02  0.3542E+02
     41.963  0.1531E+01  0.1531E+01  0.3580E+02  0.3580E+02
     42.214  0.3108E-01  0.3067E-01  0.3581E+02  0.3581E+02
     42.464 -0.7191E-01 -0.7197E-01  0.3579E+02  0.3579E+02
     42.715  0.3689E+01  0.3687E+01  0.3672E+02  0.3672E+02
     42.965  0.8050E+00  0.8065E+00  0.3692E+02  0.3692E+02
     43.215  0.7137E-01  0.7162E-01  0.3694E+02  0.3694E+02
     43.466  0.5781E-02  0.5784E-02  0.3694E+02  0.3694E+02
     43.716  0.6897E+00  0.6919E+00  0.3711E+02  0.3711E+02
     43.966  0.1108E+01  0.1105E+01  0.3739E+02  0.3739E+02
     44.217  0.3818E+00  0.3823E+00  0.3748E+02  0.3748E+02
     44.467  0.1288E+00  0.1266E+00  0.3752E+02  0.3752E+02
     44.717  0.1975E+01  0.1977E+01  0.3801E+02  0.3801E+02
     44.968  0.2447E+01  0.2445E+01  0.3862E+02  0.3862E+02
     45.218  0.3457E+01  0.3460E+01  0.3949E+02  0.3949E+02
     45.469  0.2348E+00  0.2345E+00  0.3955E+02  0.3955E+02
     45.719 -0.4959E-01 -0.5000E-01  0.3954E+02  0.3954E+02
     45.969  0.3375E+01  0.3375E+01  0.4038E+02  0.4038E+02
     46.220  0.1814E+01  0.1816E+01  0.4084E+02  0.4084E+02
     46.470  0.2900E+00  0.2907E+00  0.4091E+02  0.4091E+02
     46.720  0.7296E+00  0.7270E+00  0.4109E+02  0.4109E+02
     46.971  0.1083E+01  0.1081E+01  0.4136E+02  0.4136E+02
     47.221  0.2169E+01  0.2168E+01  0.4190E+02  0.4190E+02
     47.471  0.8230E+00  0.8287E+00  0.4211E+02  0.4211E+02
     47.722  0.1180E+01  0.1178E+01  0.4241E+02  0.4241E+02
     47.972 -0.1138E-01 -0.1181E-01  0.4240E+02  0.4240E+02
     48.223  0.1238E+01  0.1239E+01  0.4271E+02  0.4271E+02
     48.473  0.7702E+00  0.7694E+00  0.4291E+02  0.4291E+02
     48.723 -0.5794E-02 -0.5109E-02  0.4290E+02  0.4290E+02
     48.974  0.9553E+00  0.9470E+00  0.4314E+02  0.4314E+02
     49.224  0.2371E+01  0.2380E+01  0.4374E+02  0.4374E+02
     49.474  0.1400E+01  0.1400E+01  0.4409E+02  0.4409E+02
     49.725  0.2214E+01  0.2320E+01  0.4464E+02  0.4467E+02
     49.975  0.1952E+01  0.1319E+01  0.4513E+02  0.4500E+02
     50.226  0.6988E+00  0.1195E+01  0.4531E+02  0.4530E+02
     50.476  0.2210E+01  0.2242E+01  0.4586E+02  0.4586E+02
     50.726  0.7034E+00  0.6773E+00  0.4604E+02  0.4603E+02
     50.977  0.1124E+01  0.8011E+00  0.4632E+02  0.4623E+02
     51.227  0.1542E+01  0.1890E+01  0.4670E+02  0.4670E+02
     51.477  0.2330E+01  0.2211E+01  0.4729E+02  0.4726E+02
     51.728  0.6651E+00  0.7840E+00  0.4745E+02  0.4745E+02
     51.978  0.2300E+01  0.2312E+01  0.4803E+02  0.4803E+02
     52.228  0.6148E-01  0.5072E+00  0.4804E+02  0.4816E+02
     52.479  0.1810E+01  0.1289E+01  0.4850E+02  0.4848E+02
     52.729  0.1260E+01  0.1322E+01  0.4881E+02  0.4881E+02
     52.980  0.2638E+00  0.4359E+00  0.4888E+02  0.4892E+02
     53.230  0.2328E+00  0.6334E-01  0.4894E+02  0.4894E+02
     53.480 -0.9676E-06 -0.9819E-04  0.4894E+02  0.4894E+02
     53.731  0.5049E+00  0.8515E+00  0.4906E+02  0.4915E+02
     53.981  0.2241E+01  0.2092E+01  0.4962E+02  0.4967E+02
     54.231  0.7479E+00  0.5510E+00  0.4981E+02  0.4981E+02
     54.482  0.2424E+00  0.5007E+00  0.4987E+02  0.4994E+02
     54.732  0.1809E+01 -0.5342E-01  0.5033E+02  0.4992E+02
     54.983 -0.5306E-01  0.1550E+01  0.5031E+02  0.5031E+02
     55.233  0.5787E-01 -0.4237E-02  0.5033E+02  0.5031E+02
     55.483  0.5469E+00  0.4954E+00  0.5046E+02  0.5044E+02
     55.734  0.9054E+00  0.1193E+01  0.5069E+02  0.5073E+02
     55.984  0.2106E+01  0.1946E+01  0.5122E+02  0.5122E+02
     56.234  0.1976E+01  0.3026E+01  0.5171E+02  0.5198E+02
     56.485  0.7109E+00  0.5825E-01  0.5189E+02  0.5199E+02
     56.735  0.1914E+00  0.1861E+00  0.5194E+02  0.5204E+02
     56.985  0.1811E+01  0.1212E+01  0.5239E+02  0.5234E+02
     57.236  0.1612E+01  0.4125E+00  0.5280E+02  0.5245E+02
     57.486  0.1052E+01  0.2954E+01  0.5306E+02  0.5319E+02
     57.737  0.1619E+00  0.4345E-02  0.5310E+02  0.5319E+02
     57.987  0.5236E+00  0.9005E+00  0.5323E+02  0.5341E+02
     58.237  0.7639E+00  0.3144E-01  0.5342E+02  0.5342E+02
     58.488  0.1928E+00  0.3213E+00  0.5347E+02  0.5350E+02
     58.738  0.3736E+00  0.4435E+00  0.5356E+02  0.5361E+02
     58.988  0.1546E+01  0.1549E+01  0.5395E+02  0.5400E+02
     59.239 -0.5615E-01  0.0000E+00  0.5394E+02  0.5400E+02
     59.489  0.2530E+00  0.0000E+00  0.5400E+02  0.5400E+02
     59.740  0.0000E+00  0.0000E+00  0.5400E+02  0.5400E+02
     59.990  0.0000E+00  0.0000E+00  0.5400E+02  0.5400E+02
     60.240  0.0000E+00  0.0000E+00  0.5400E+02  0.5400E+02
     60.491  0.0000E+00  0.0000E+00  0.5400E+02  0.5400E+02
     60.741  0.0000E+00  0.0000E+00  0.5400E+02  0.5400E+02
     60.991  0.0000E+00  0.0000E+00  0.5400E+02  0.5400E+02
     61.242  0.0000E+00  0.0000E+00  0.5400E+02  0.5400E+02
     61.492  0.0000E+00  0.0000E+00  0.5400E+02  0.5400E+02
     61.742  0.0000E+00  0.0000E+00  0.5400E+02  0.5400E+02
     61.993  0.0000E+00  0.0000E+00  0.5400E+02  0.5400E+02
     62.243  0.0000E+00  0.0000E+00  0.5400E+02  0.5400E+02
     62.494  0.0000E+00  0.0000E+00  0.5400E+02  0.5400E+02
     62.744  0.0000E+00  0.0000E+00  0.5400E+02  0.5400E+02
