    2    2    1    1
  0.2234237E+02  0.3983132E-09  0.3983132E-09  0.3983132E-09  0.5000000E-15
  1.000000000000000E-004
  CAR 
 unknown system                          
      8      8     56
 
  0.0000000E+00  0.0000000E+00  0.0000000E+00  0.1562500E-01
    1       -8.952350   1.000000
    2        3.936300   1.000023
    3        3.936300   1.000023
    4        3.936300   1.000023
    5        4.120927   0.127975
    6        6.449828   0.000000
    7        6.449828   0.000000
    8        6.449828   0.000000
    9       10.383965   0.000000
   10       13.199814   0.000000
   11       13.199814   0.000000
   12       14.651235   0.000000
   13       14.651235   0.000000
   14       14.651235   0.000000
   15       17.808752   0.000000
   16       28.282968   0.000000
   17       28.282968   0.000000
   18       28.282969   0.000000
   19       29.112753   0.000000
   20       29.112753   0.000000
   21       29.112753   0.000000
   22       29.481411   0.000000
   23       29.481411   0.000000
   24       30.173200   0.000000
   25       30.173200   0.000000
   26       30.173200   0.000000
   27       38.678863   0.000000
   28       39.126690   0.000000
   29       39.126690   0.000000
   30       39.126690   0.000000
   31       41.958364   0.000000
   32       41.958366   0.000000
   33       42.515587   0.000000
   34       42.515590   0.000000
   35       43.474668   0.000000
   36       43.693304   0.000000
   37       43.693305   0.000000
   38       43.693338   0.000000
   39       44.101008   0.000000
   40       44.101008   0.000000
   41       44.101021   0.000000
   42       44.903734   0.000000
   43       44.903736   0.000000
   44       44.903793   0.000000
   45       45.406578   0.000000
   46       45.406580   0.000000
   47       45.406714   0.000000
   48       46.518423   0.000000
   49       46.518425   0.000000
   50       46.518963   0.000000
   51       49.975165   0.000000
   52       51.941368   0.000000
   53       51.941609   0.000000
   54       52.108150   0.000000
   55       52.220694   0.000000
   56       52.222039   0.000000
 
  0.2500000E+00  0.0000000E+00  0.0000000E+00  0.1250000E+00
    1       -8.202066   1.000000
    2       -0.809329   1.000000
    3        3.028092   1.000000
    4        3.028092   1.000000
    5        4.644832  -0.000000
    6        7.542536   0.000000
    7        7.542536   0.000000
    8        9.645775   0.000000
    9       11.943243   0.000000
   10       12.129635   0.000000
   11       12.129635   0.000000
   12       14.853421   0.000000
   13       18.748797   0.000000
   14       18.748797   0.000000
   15       21.711269   0.000000
   16       21.770048   0.000000
   17       21.770048   0.000000
   18       22.581209   0.000000
   19       29.336451   0.000000
   20       29.336451   0.000000
   21       29.986562   0.000000
   22       29.986562   0.000000
   23       30.792610   0.000000
   24       31.891295   0.000000
   25       32.807422   0.000000
   26       33.928043   0.000000
   27       33.928043   0.000000
   28       36.908828   0.000000
   29       36.908828   0.000000
   30       37.222746   0.000000
   31       37.222746   0.000000
   32       39.116820   0.000000
   33       39.471543   0.000000
   34       39.471543   0.000000
   35       39.874121   0.000000
   36       40.303974   0.000000
   37       42.698257   0.000000
   38       42.698257   0.000000
   39       43.536688   0.000000
   40       44.494853   0.000000
   41       44.750229   0.000000
   42       44.750230   0.000000
   43       45.026428   0.000000
   44       48.824819   0.000000
   45       48.824826   0.000000
   46       49.918332   0.000000
   47       49.918426   0.000000
   48       50.942487   0.000000
   49       51.072340   0.000000
   50       51.072453   0.000000
   51       52.442279   0.000000
   52       53.544903   0.000000
   53       56.645513   0.000000
   54       56.665625   0.000000
   55       57.451835   0.000000
   56       57.743276   0.000000
 
  0.5000000E+00  0.0000000E+00  0.0000000E+00  0.6250000E-01
    1       -6.835128   1.000000
    2       -3.743236   1.000000
    3        2.495784   1.000000
    4        2.495784   1.000000
    5        4.152652  -0.032011
    6        7.634140   0.000000
    7        7.634140   0.000000
    8       11.026397   0.000000
    9       14.560520   0.000000
   10       15.097530   0.000000
   11       15.097530   0.000000
   12       15.190808   0.000000
   13       16.070941   0.000000
   14       16.070941   0.000000
   15       22.708343   0.000000
   16       23.891660   0.000000
   17       25.366772   0.000000
   18       25.366772   0.000000
   19       25.499943   0.000000
   20       25.499943   0.000000
   21       28.846670   0.000000
   22       30.030690   0.000000
   23       30.283639   0.000000
   24       30.283639   0.000000
   25       31.012883   0.000000
   26       31.012883   0.000000
   27       31.698660   0.000000
   28       35.205955   0.000000
   29       35.205955   0.000000
   30       35.332844   0.000000
   31       35.332845   0.000000
   32       36.153642   0.000000
   33       37.250538   0.000000
   34       37.432657   0.000000
   35       42.520182   0.000000
   36       42.520183   0.000000
   37       42.794764   0.000000
   38       43.777456   0.000000
   39       43.777456   0.000000
   40       44.733653   0.000000
   41       48.114440   0.000000
   42       48.114464   0.000000
   43       49.467134   0.000000
   44       49.467187   0.000000
   45       50.270934   0.000000
   46       52.441241   0.000000
   47       52.894777   0.000000
   48       52.895569   0.000000
   49       54.267676   0.000000
   50       54.268482   0.000000
   51       54.851350   0.000000
   52       56.044929   0.000000
   53       56.049871   0.000000
   54       57.758527   0.000000
   55       57.798078   0.000000
   56       58.639263   0.000000
 
  0.2500000E+00  0.2500000E+00  0.0000000E+00  0.9375000E-01
    1       -7.930876   1.000000
    2       -0.772696   1.000000
    3        1.843282   1.000000
    4        1.843282   1.000000
    5        4.905030  -0.000000
    6        6.691353   0.000000
    7        9.785440   0.000000
    8        9.785440   0.000000
    9       11.050536   0.000000
   10       14.143626   0.000000
   11       14.235068   0.000000
   12       16.750745   0.000000
   13       16.750745   0.000000
   14       17.449119   0.000000
   15       21.378380   0.000000
   16       21.378380   0.000000
   17       22.576515   0.000000
   18       23.481680   0.000000
   19       24.434857   0.000000
   20       29.292623   0.000000
   21       30.561254   0.000000
   22       30.561254   0.000000
   23       30.820592   0.000000
   24       31.878489   0.000000
   25       31.878489   0.000000
   26       32.867569   0.000000
   27       33.369696   0.000000
   28       36.756805   0.000000
   29       37.846842   0.000000
   30       37.912690   0.000000
   31       37.912691   0.000000
   32       38.821717   0.000000
   33       38.821717   0.000000
   34       39.878794   0.000000
   35       41.223509   0.000000
   36       41.223509   0.000000
   37       41.735207   0.000000
   38       41.877817   0.000000
   39       42.675196   0.000000
   40       44.803297   0.000000
   41       45.107035   0.000000
   42       45.107036   0.000000
   43       46.779662   0.000000
   44       49.014198   0.000000
   45       49.014208   0.000000
   46       49.241815   0.000000
   47       49.559858   0.000000
   48       50.684863   0.000000
   49       50.684902   0.000000
   50       51.054051   0.000000
   51       52.214541   0.000000
   52       52.349789   0.000000
   53       55.578305   0.000000
   54       56.943739   0.000000
   55       56.953853   0.000000
   56       59.858579   0.000000
 
  0.5000000E+00  0.2500000E+00  0.0000000E+00  0.3750000E+00
    1       -6.420215   1.000000
    2       -3.497396   1.000000
    3        0.126792   1.000000
    4        1.473122   1.000000
    5        5.317683  -0.000000
    6        8.172839   0.000000
    7        9.380869   0.000000
    8       10.132653   0.000000
    9       13.951818   0.000000
   10       15.179155   0.000000
   11       15.771122   0.000000
   12       16.230011   0.000000
   13       17.063102   0.000000
   14       20.593575   0.000000
   15       21.614250   0.000000
   16       22.633078   0.000000
   17       23.157743   0.000000
   18       23.359589   0.000000
   19       23.703358   0.000000
   20       25.572328   0.000000
   21       27.686105   0.000000
   22       28.184104   0.000000
   23       28.880708   0.000000
   24       30.464447   0.000000
   25       31.500734   0.000000
   26       31.827758   0.000000
   27       32.151367   0.000000
   28       33.180266   0.000000
   29       34.772887   0.000000
   30       36.462061   0.000000
   31       37.006919   0.000000
   32       38.545306   0.000000
   33       39.208391   0.000000
   34       39.324712   0.000000
   35       39.794880   0.000000
   36       42.538447   0.000000
   37       44.500146   0.000000
   38       45.064038   0.000000
   39       45.791704   0.000000
   40       45.956492   0.000000
   41       46.187609   0.000000
   42       47.210927   0.000000
   43       47.489449   0.000000
   44       49.040647   0.000000
   45       49.710392   0.000000
   46       50.275206   0.000000
   47       51.470350   0.000000
   48       51.864946   0.000000
   49       53.781278   0.000000
   50       54.608962   0.000000
   51       55.606746   0.000000
   52       55.865664   0.000000
   53       56.658496   0.000000
   54       58.082083   0.000000
   55       58.529272   0.000000
   56       60.264353   0.000000
 
 -0.2500000E+00  0.2500000E+00  0.0000000E+00  0.1875000E+00
    1       -7.044295   1.000000
    2       -2.625959   1.000000
    3       -0.021093   1.000000
    4        2.391593   1.000000
    5        5.901812   0.000000
    6        8.709948   0.000000
    7        9.082864   0.000000
    8        9.257454   0.000000
    9       11.484633   0.000000
   10       13.404200   0.000000
   11       15.874760   0.000000
   12       16.495671   0.000000
   13       17.586742   0.000000
   14       20.209042   0.000000
   15       21.688822   0.000000
   16       22.442263   0.000000
   17       22.628737   0.000000
   18       24.586711   0.000000
   19       25.180134   0.000000
   20       27.078799   0.000000
   21       27.707533   0.000000
   22       28.691781   0.000000
   23       29.542518   0.000000
   24       29.555525   0.000000
   25       31.278355   0.000000
   26       31.505039   0.000000
   27       33.285157   0.000000
   28       33.493983   0.000000
   29       37.353655   0.000000
   30       37.760071   0.000000
   31       37.962489   0.000000
   32       38.248812   0.000000
   33       39.027753   0.000000
   34       39.386547   0.000000
   35       39.465643   0.000000
   36       39.732344   0.000000
   37       39.895261   0.000000
   38       43.951176   0.000000
   39       45.185307   0.000000
   40       46.483830   0.000000
   41       46.937702   0.000000
   42       47.047002   0.000000
   43       49.389072   0.000000
   44       50.106797   0.000000
   45       50.874918   0.000000
   46       51.366887   0.000000
   47       51.397804   0.000000
   48       52.206960   0.000000
   49       52.545380   0.000000
   50       53.530633   0.000000
   51       53.920976   0.000000
   52       56.119259   0.000000
   53       56.587757   0.000000
   54       56.744958   0.000000
   55       57.549552   0.000000
   56       57.669249   0.000000
 
  0.5000000E+00  0.5000000E+00  0.0000000E+00  0.4687500E-01
    1       -5.015465   1.000000
    2       -5.015465   1.000000
    3        0.787989   1.000000
    4        0.787989   1.000000
    5        4.634723  -0.000000
    6        4.634723  -0.000000
    7       13.510171   0.000000
    8       13.510171   0.000000
    9       15.668205   0.000000
   10       15.668205   0.000000
   11       16.492278   0.000000
   12       16.492278   0.000000
   13       17.355306   0.000000
   14       17.355306   0.000000
   15       22.898291   0.000000
   16       22.898291   0.000000
   17       22.907277   0.000000
   18       22.907277   0.000000
   19       22.928249   0.000000
   20       22.928249   0.000000
   21       23.607134   0.000000
   22       23.607134   0.000000
   23       30.855412   0.000000
   24       30.855412   0.000000
   25       32.295645   0.000000
   26       32.295645   0.000000
   27       35.755861   0.000000
   28       35.755861   0.000000
   29       36.476674   0.000000
   30       36.476674   0.000000
   31       38.567365   0.000000
   32       38.567365   0.000000
   33       38.786927   0.000000
   34       38.786927   0.000000
   35       40.103494   0.000000
   36       40.103494   0.000000
   37       42.541905   0.000000
   38       42.541906   0.000000
   39       42.944856   0.000000
   40       42.944857   0.000000
   41       47.008311   0.000000
   42       47.008323   0.000000
   43       49.858899   0.000000
   44       49.858940   0.000000
   45       50.322088   0.000000
   46       50.322139   0.000000
   47       55.132950   0.000000
   48       55.152768   0.000000
   49       55.974713   0.000000
   50       55.988469   0.000000
   51       56.959547   0.000000
   52       57.010434   0.000000
   53       57.171115   0.000000
   54       57.198125   0.000000
   55       57.992922   0.000000
   56       58.358836   0.000000
 
 -0.2500000E+00  0.5000000E+00  0.2500000E+00  0.9375000E-01
    1       -4.912756   1.000000
    2       -4.912756   1.000000
    3       -0.066146   1.000000
    4       -0.066146   1.000000
    5        8.285148   0.000000
    6        8.285148   0.000000
    7        8.620102   0.000000
    8        8.620102   0.000000
    9       14.945273   0.000000
   10       14.945273   0.000000
   11       16.822070   0.000000
   12       16.822070   0.000000
   13       20.222976   0.000000
   14       20.222976   0.000000
   15       21.078455   0.000000
   16       21.078455   0.000000
   17       23.384559   0.000000
   18       23.384559   0.000000
   19       24.628367   0.000000
   20       24.628367   0.000000
   21       27.092140   0.000000
   22       27.092140   0.000000
   23       29.768531   0.000000
   24       29.768531   0.000000
   25       29.903538   0.000000
   26       29.903538   0.000000
   27       30.562978   0.000000
   28       30.562978   0.000000
   29       36.500619   0.000000
   30       36.500619   0.000000
   31       38.147085   0.000000
   32       38.147085   0.000000
   33       40.127489   0.000000
   34       40.127489   0.000000
   35       41.879967   0.000000
   36       41.879967   0.000000
   37       44.915086   0.000000
   38       44.915087   0.000000
   39       45.907844   0.000000
   40       45.907845   0.000000
   41       48.060351   0.000000
   42       48.060363   0.000000
   43       48.275433   0.000000
   44       48.275461   0.000000
   45       49.502379   0.000000
   46       49.502412   0.000000
   47       51.862408   0.000000
   48       51.862638   0.000000
   49       55.666071   0.000000
   50       55.671387   0.000000
   51       55.677601   0.000000
   52       55.690923   0.000000
   53       57.163384   0.000000
   54       57.180737   0.000000
   55       58.788228   0.000000
   56       58.914581   0.000000
