    2    2    1    2
  0.2234237E+02  0.3983132E-09  0.3983132E-09  0.3983132E-09  0.5000000E-15
  1.000000000000000E-004
  CAR 
 unknown system                          
      8      8     54
 
  0.0000000E+00  0.0000000E+00  0.0000000E+00  0.1562500E-01
    1       -8.952291     -8.952293   1.000000   1.000000
    2        3.936356      3.936357   1.000023   1.000023
    3        3.936356      3.936357   1.000023   1.000023
    4        3.936356      3.936357   1.000023   1.000023
    5        4.121001      4.120995   0.128290   0.128395
    6        6.449866      6.449854   0.000000   0.000000
    7        6.449866      6.449854   0.000000   0.000000
    8        6.449866      6.449855   0.000000   0.000000
    9       10.384119     10.384151   0.000000   0.000000
   10       13.199847     13.199835   0.000000   0.000000
   11       13.199847     13.199835   0.000000   0.000000
   12       14.651334     14.651321   0.000000   0.000000
   13       14.651334     14.651321   0.000000   0.000000
   14       14.651334     14.651321   0.000000   0.000000
   15       17.808874     17.808957   0.000000   0.000000
   16       28.283064     28.283058   0.000000   0.000000
   17       28.283064     28.283058   0.000000   0.000000
   18       28.283064     28.283058   0.000000   0.000000
   19       29.112836     29.112845   0.000000   0.000000
   20       29.112837     29.112845   0.000000   0.000000
   21       29.112837     29.112845   0.000000   0.000000
   22       29.481464     29.481447   0.000000   0.000000
   23       29.481464     29.481447   0.000000   0.000000
   24       30.173226     30.173218   0.000000   0.000000
   25       30.173227     30.173218   0.000000   0.000000
   26       30.173227     30.173218   0.000000   0.000000
   27       38.678943     38.679046   0.000000   0.000000
   28       39.126774     39.126776   0.000000   0.000000
   29       39.126775     39.126780   0.000000   0.000000
   30       39.126829     39.126802   0.000000   0.000000
   31       41.958525     41.958509   0.000000   0.000000
   32       41.959178     41.958795   0.000000   0.000000
   33       42.515739     42.515829   0.000000   0.000000
   34       42.516022     42.516595   0.000000   0.000000
   35       43.475304     43.475382   0.000000   0.000000
   36       43.693656     43.693652   0.000000   0.000000
   37       43.695935     43.694015   0.000000   0.000000
   38       43.698502     43.697605   0.000000   0.000000
   39       44.101208     44.101288   0.000000   0.000000
   40       44.101899     44.101906   0.000000   0.000000
   41       44.105042     44.105936   0.000000   0.000000
   42       44.904076     44.904281   0.000000   0.000000
   43       44.909382     44.905344   0.000000   0.000000
   44       44.914558     44.926188   0.000000   0.000000
   45       45.408906     45.406796   0.000000   0.000000
   46       45.412296     45.409196   0.000000   0.000000
   47       45.419594     45.418649   0.000000   0.000000
   48       46.519124     46.520110   0.000000   0.000000
   49       46.527373     46.527004   0.000000   0.000000
   50       46.537178     46.579981   0.000000   0.000000
   51       50.233808     50.420708   0.000000   0.000000
   52       51.977597     51.958751   0.000000   0.000000
   53       52.149682     52.055460   0.000000   0.000000
   54       52.294465     52.259641   0.000000   0.000000
 
  0.2500000E+00  0.0000000E+00  0.0000000E+00  0.1250000E+00
    1       -8.202007     -8.202009   1.000000   1.000000
    2       -0.809269     -0.809272   1.000000   1.000000
    3        3.028143      3.028142   1.000000   1.000000
    4        3.028143      3.028142   1.000000   1.000000
    5        4.644900      4.644896  -0.000000  -0.000000
    6        7.542579      7.542568   0.000000   0.000000
    7        7.542579      7.542568   0.000000   0.000000
    8        9.645854      9.645860   0.000000   0.000000
    9       11.943365     11.943387   0.000000   0.000000
   10       12.129698     12.129686   0.000000   0.000000
   11       12.129698     12.129686   0.000000   0.000000
   12       14.853531     14.853548   0.000000   0.000000
   13       18.748860     18.748848   0.000000   0.000000
   14       18.748860     18.748848   0.000000   0.000000
   15       21.711344     21.711379   0.000000   0.000000
   16       21.770114     21.770107   0.000000   0.000000
   17       21.770114     21.770107   0.000000   0.000000
   18       22.581328     22.581349   0.000000   0.000000
   19       29.336524     29.336512   0.000000   0.000000
   20       29.336524     29.336512   0.000000   0.000000
   21       29.986628     29.986631   0.000000   0.000000
   22       29.986629     29.986632   0.000000   0.000000
   23       30.792636     30.792629   0.000000   0.000000
   24       31.891379     31.891402   0.000000   0.000000
   25       32.807508     32.807514   0.000000   0.000000
   26       33.928093     33.928085   0.000000   0.000000
   27       33.928094     33.928086   0.000000   0.000000
   28       36.908924     36.908925   0.000000   0.000000
   29       36.908925     36.908930   0.000000   0.000000
   30       37.222848     37.222838   0.000000   0.000000
   31       37.222848     37.222841   0.000000   0.000000
   32       39.116885     39.116914   0.000000   0.000000
   33       39.471586     39.471585   0.000000   0.000000
   34       39.471587     39.471604   0.000000   0.000000
   35       39.874163     39.874152   0.000000   0.000000
   36       40.304062     40.304124   0.000000   0.000000
   37       42.698342     42.698343   0.000000   0.000000
   38       42.698357     42.698586   0.000000   0.000000
   39       43.536847     43.537050   0.000000   0.000000
   40       44.495000     44.495486   0.000000   0.000000
   41       44.750300     44.750313   0.000000   0.000000
   42       44.750668     44.750799   0.000000   0.000000
   43       45.026576     45.027391   0.000000   0.000000
   44       48.825239     48.827623   0.000000   0.000000
   45       48.831507     48.832489   0.000000   0.000000
   46       49.921946     49.923242   0.000000   0.000000
   47       49.928299     50.034856   0.000000   0.000000
   48       50.966596     51.046464   0.000000   0.000000
   49       51.076375     51.068827   0.000000   0.000000
   50       51.083195     51.102020   0.000000   0.000000
   51       52.508159     52.548837   0.000000   0.000000
   52       53.661275     53.750018   0.000000   0.000000
   53       56.782206     56.985426   0.000000   0.000000
   54       57.184939     57.379362   0.000000   0.000000
 
  0.5000000E+00  0.0000000E+00  0.0000000E+00  0.6250000E-01
    1       -6.835071     -6.835073   1.000000   1.000000
    2       -3.743176     -3.743178   1.000000   1.000000
    3        2.495833      2.495831   1.000000   1.000000
    4        2.495833      2.495832   1.000000   1.000000
    5        4.152726      4.152722  -0.032105  -0.032100
    6        7.634190      7.634178   0.000000   0.000000
    7        7.634190      7.634178   0.000000   0.000000
    8       11.026502     11.026529   0.000000   0.000000
    9       14.560641     14.560672   0.000000   0.000000
   10       15.097607     15.097592   0.000000   0.000000
   11       15.097607     15.097592   0.000000   0.000000
   12       15.190894     15.190885   0.000000   0.000000
   13       16.070979     16.070976   0.000000   0.000000
   14       16.070979     16.070976   0.000000   0.000000
   15       22.708424     22.708436   0.000000   0.000000
   16       23.891740     23.891752   0.000000   0.000000
   17       25.366806     25.366797   0.000000   0.000000
   18       25.366806     25.366797   0.000000   0.000000
   19       25.500047     25.500031   0.000000   0.000000
   20       25.500048     25.500032   0.000000   0.000000
   21       28.846769     28.846822   0.000000   0.000000
   22       30.030786     30.030810   0.000000   0.000000
   23       30.283698     30.283692   0.000000   0.000000
   24       30.283698     30.283693   0.000000   0.000000
   25       31.012945     31.012945   0.000000   0.000000
   26       31.012946     31.012945   0.000000   0.000000
   27       31.698683     31.698678   0.000000   0.000000
   28       35.206047     35.206059   0.000000   0.000000
   29       35.206047     35.206059   0.000000   0.000000
   30       35.332949     35.332933   0.000000   0.000000
   31       35.332949     35.332933   0.000000   0.000000
   32       36.153746     36.153739   0.000000   0.000000
   33       37.250576     37.250557   0.000000   0.000000
   34       37.432710     37.432755   0.000000   0.000000
   35       42.520266     42.520268   0.000000   0.000000
   36       42.520275     42.520274   0.000000   0.000000
   37       42.794895     42.794903   0.000000   0.000000
   38       43.777518     43.777508   0.000000   0.000000
   39       43.777584     43.777521   0.000000   0.000000
   40       44.733762     44.733739   0.000000   0.000000
   41       48.114858     48.114871   0.000000   0.000000
   42       48.116042     48.116288   0.000000   0.000000
   43       49.468677     49.468251   0.000000   0.000000
   44       49.469098     49.472850   0.000000   0.000000
   45       50.279163     50.277306   0.000000   0.000000
   46       52.460471     52.462931   0.000000   0.000000
   47       52.908970     52.905121   0.000000   0.000000
   48       53.015159     52.966177   0.000000   0.000000
   49       54.335540     54.350215   0.000000   0.000000
   50       54.544221     54.366792   0.000000   0.000000
   51       55.289431     55.396803   0.000000   0.000000
   52       56.131268     56.155891   0.000000   0.000000
   53       57.277935     56.508153   0.000000   0.000000
   54       59.329821     58.486470   0.000000   0.000000
 
  0.2500000E+00  0.2500000E+00  0.0000000E+00  0.9375000E-01
    1       -7.930817     -7.930819   1.000000   1.000000
    2       -0.772636     -0.772638   1.000000   1.000000
    3        1.843332      1.843329   1.000000   1.000000
    4        1.843333      1.843329   1.000000   1.000000
    5        4.905099      4.905099  -0.000000  -0.000000
    6        6.691419      6.691417   0.000000   0.000000
    7        9.785488      9.785481   0.000000   0.000000
    8        9.785488      9.785481   0.000000   0.000000
    9       11.050623     11.050621   0.000000   0.000000
   10       14.143753     14.143776   0.000000   0.000000
   11       14.235100     14.235088   0.000000   0.000000
   12       16.750834     16.750821   0.000000   0.000000
   13       16.750834     16.750821   0.000000   0.000000
   14       17.449197     17.449234   0.000000   0.000000
   15       21.378463     21.378461   0.000000   0.000000
   16       21.378464     21.378461   0.000000   0.000000
   17       22.576550     22.576538   0.000000   0.000000
   18       23.481747     23.481748   0.000000   0.000000
   19       24.434938     24.434964   0.000000   0.000000
   20       29.292728     29.292723   0.000000   0.000000
   21       30.561308     30.561306   0.000000   0.000000
   22       30.561308     30.561306   0.000000   0.000000
   23       30.820669     30.820685   0.000000   0.000000
   24       31.878567     31.878559   0.000000   0.000000
   25       31.878568     31.878560   0.000000   0.000000
   26       32.867663     32.867668   0.000000   0.000000
   27       33.369756     33.369767   0.000000   0.000000
   28       36.756852     36.756858   0.000000   0.000000
   29       37.846902     37.846888   0.000000   0.000000
   30       37.912760     37.912758   0.000000   0.000000
   31       37.912760     37.912759   0.000000   0.000000
   32       38.821771     38.821770   0.000000   0.000000
   33       38.821771     38.821771   0.000000   0.000000
   34       39.878859     39.878856   0.000000   0.000000
   35       41.223604     41.223586   0.000000   0.000000
   36       41.223607     41.223587   0.000000   0.000000
   37       41.735242     41.735247   0.000000   0.000000
   38       41.877903     41.877888   0.000000   0.000000
   39       42.675273     42.675349   0.000000   0.000000
   40       44.803402     44.803432   0.000000   0.000000
   41       45.107139     45.107187   0.000000   0.000000
   42       45.107325     45.107349   0.000000   0.000000
   43       46.780067     46.779944   0.000000   0.000000
   44       49.014726     49.014640   0.000000   0.000000
   45       49.016848     49.023438   0.000000   0.000000
   46       49.243211     49.242994   0.000000   0.000000
   47       49.562139     49.563595   0.000000   0.000000
   48       50.688942     50.685565   0.000000   0.000000
   49       50.698016     50.705446   0.000000   0.000000
   50       51.058456     51.059254   0.000000   0.000000
   51       52.269142     52.228149   0.000000   0.000000
   52       52.355510     52.399338   0.000000   0.000000
   53       55.830041     55.761951   0.000000   0.000000
   54       57.024607     57.362733   0.000000   0.000000
 
  0.5000000E+00  0.2500000E+00  0.0000000E+00  0.3750000E+00
    1       -6.420157     -6.420159   1.000000   1.000000
    2       -3.497337     -3.497340   1.000000   1.000000
    3        0.126850      0.126847   1.000000   1.000000
    4        1.473171      1.473168   1.000000   1.000000
    5        5.317755      5.317754  -0.000000  -0.000000
    6        8.172898      8.172892   0.000000   0.000000
    7        9.380946      9.380952   0.000000   0.000000
    8       10.132701     10.132691   0.000000   0.000000
    9       13.951902     13.951915   0.000000   0.000000
   10       15.179221     15.179211   0.000000   0.000000
   11       15.771219     15.771223   0.000000   0.000000
   12       16.230105     16.230105   0.000000   0.000000
   13       17.063142     17.063136   0.000000   0.000000
   14       20.593664     20.593680   0.000000   0.000000
   15       21.614325     21.614311   0.000000   0.000000
   16       22.633143     22.633140   0.000000   0.000000
   17       23.157796     23.157789   0.000000   0.000000
   18       23.359670     23.359679   0.000000   0.000000
   19       23.703417     23.703419   0.000000   0.000000
   20       25.572394     25.572394   0.000000   0.000000
   21       27.686200     27.686212   0.000000   0.000000
   22       28.184185     28.184172   0.000000   0.000000
   23       28.880772     28.880773   0.000000   0.000000
   24       30.464537     30.464553   0.000000   0.000000
   25       31.500799     31.500794   0.000000   0.000000
   26       31.827815     31.827810   0.000000   0.000000
   27       32.151446     32.151452   0.000000   0.000000
   28       33.180341     33.180343   0.000000   0.000000
   29       34.772981     34.773010   0.000000   0.000000
   30       36.462129     36.462128   0.000000   0.000000
   31       37.007000     37.006992   0.000000   0.000000
   32       38.545376     38.545372   0.000000   0.000000
   33       39.208473     39.208470   0.000000   0.000000
   34       39.324769     39.324770   0.000000   0.000000
   35       39.794944     39.794948   0.000000   0.000000
   36       42.538540     42.538537   0.000000   0.000000
   37       44.500300     44.500281   0.000000   0.000000
   38       45.064201     45.064182   0.000000   0.000000
   39       45.792049     45.791911   0.000000   0.000000
   40       45.956645     45.956661   0.000000   0.000000
   41       46.187865     46.187701   0.000000   0.000000
   42       47.211323     47.211445   0.000000   0.000000
   43       47.489806     47.489665   0.000000   0.000000
   44       49.041985     49.041690   0.000000   0.000000
   45       49.717019     49.712487   0.000000   0.000000
   46       50.276340     50.280449   0.000000   0.000000
   47       51.475342     51.479437   0.000000   0.000000
   48       51.879806     51.872961   0.000000   0.000000
   49       53.832811     53.859106   0.000000   0.000000
   50       54.671667     54.795845   0.000000   0.000000
   51       55.756124     55.734192   0.000000   0.000000
   52       56.102323     56.025759   0.000000   0.000000
   53       56.759749     57.323385   0.000000   0.000000
   54       58.925136     58.796813   0.000000   0.000000
 
 -0.2500000E+00  0.2500000E+00  0.0000000E+00  0.1875000E+00
    1       -7.044237     -7.044239   1.000000   1.000000
    2       -2.625901     -2.625903   1.000000   1.000000
    3       -0.021035     -0.021037   1.000000   1.000000
    4        2.391643      2.391641   1.000000   1.000000
    5        5.901875      5.901867   0.000000   0.000000
    6        8.709988      8.709976   0.000000   0.000000
    7        9.082944      9.082950   0.000000   0.000000
    8        9.257522      9.257526   0.000000   0.000000
    9       11.484706     11.484696   0.000000   0.000000
   10       13.404280     13.404290   0.000000   0.000000
   11       15.874849     15.874861   0.000000   0.000000
   12       16.495787     16.495782   0.000000   0.000000
   13       17.586790     17.586788   0.000000   0.000000
   14       20.209127     20.209126   0.000000   0.000000
   15       21.688894     21.688897   0.000000   0.000000
   16       22.442300     22.442293   0.000000   0.000000
   17       22.628790     22.628780   0.000000   0.000000
   18       24.586794     24.586785   0.000000   0.000000
   19       25.180185     25.180181   0.000000   0.000000
   20       27.078917     27.078954   0.000000   0.000000
   21       27.707630     27.707656   0.000000   0.000000
   22       28.691820     28.691812   0.000000   0.000000
   23       29.542636     29.542621   0.000000   0.000000
   24       29.555579     29.555578   0.000000   0.000000
   25       31.278400     31.278399   0.000000   0.000000
   26       31.505109     31.505108   0.000000   0.000000
   27       33.285240     33.285251   0.000000   0.000000
   28       33.494065     33.494056   0.000000   0.000000
   29       37.353735     37.353740   0.000000   0.000000
   30       37.760151     37.760159   0.000000   0.000000
   31       37.962558     37.962553   0.000000   0.000000
   32       38.248889     38.248886   0.000000   0.000000
   33       39.027799     39.027798   0.000000   0.000000
   34       39.386600     39.386601   0.000000   0.000000
   35       39.465689     39.465686   0.000000   0.000000
   36       39.732449     39.732481   0.000000   0.000000
   37       39.895369     39.895377   0.000000   0.000000
   38       43.951385     43.951438   0.000000   0.000000
   39       45.185778     45.185696   0.000000   0.000000
   40       46.484516     46.484432   0.000000   0.000000
   41       46.937966     46.938182   0.000000   0.000000
   42       47.048360     47.048426   0.000000   0.000000
   43       49.392987     49.391610   0.000000   0.000000
   44       50.110243     50.113052   0.000000   0.000000
   45       50.888497     50.890745   0.000000   0.000000
   46       51.397492     51.375501   0.000000   0.000000
   47       51.429707     51.431191   0.000000   0.000000
   48       52.317356     52.238248   0.000000   0.000000
   49       52.617878     52.579581   0.000000   0.000000
   50       53.915453     53.627249   0.000000   0.000000
   51       54.043806     53.995915   0.000000   0.000000
   52       56.254885     56.184452   0.000000   0.000000
   53       57.305487     56.793434   0.000000   0.000000
   54       58.063361     57.931032   0.000000   0.000000
 
  0.5000000E+00  0.5000000E+00  0.0000000E+00  0.4687500E-01
    1       -5.015407     -5.015409   1.000000   1.000000
    2       -5.015407     -5.015409   1.000000   1.000000
    3        0.788039      0.788035   1.000000   1.000000
    4        0.788039      0.788035   1.000000   1.000000
    5        4.634800      4.634801  -0.000000  -0.000000
    6        4.634800      4.634801  -0.000000  -0.000000
    7       13.510219     13.510207   0.000000   0.000000
    8       13.510219     13.510207   0.000000   0.000000
    9       15.668307     15.668317   0.000000   0.000000
   10       15.668307     15.668318   0.000000   0.000000
   11       16.492355     16.492360   0.000000   0.000000
   12       16.492355     16.492360   0.000000   0.000000
   13       17.355339     17.355327   0.000000   0.000000
   14       17.355339     17.355327   0.000000   0.000000
   15       22.898334     22.898328   0.000000   0.000000
   16       22.898334     22.898328   0.000000   0.000000
   17       22.907352     22.907383   0.000000   0.000000
   18       22.907352     22.907383   0.000000   0.000000
   19       22.928379     22.928358   0.000000   0.000000
   20       22.928379     22.928358   0.000000   0.000000
   21       23.607217     23.607224   0.000000   0.000000
   22       23.607217     23.607224   0.000000   0.000000
   23       30.855474     30.855472   0.000000   0.000000
   24       30.855475     30.855472   0.000000   0.000000
   25       32.295692     32.295693   0.000000   0.000000
   26       32.295692     32.295693   0.000000   0.000000
   27       35.755925     35.755924   0.000000   0.000000
   28       35.755925     35.755924   0.000000   0.000000
   29       36.476801     36.476804   0.000000   0.000000
   30       36.476801     36.476804   0.000000   0.000000
   31       38.567407     38.567423   0.000000   0.000000
   32       38.567408     38.567425   0.000000   0.000000
   33       38.786988     38.786983   0.000000   0.000000
   34       38.786988     38.786983   0.000000   0.000000
   35       40.103581     40.103563   0.000000   0.000000
   36       40.103582     40.103565   0.000000   0.000000
   37       42.542014     42.542027   0.000000   0.000000
   38       42.542033     42.542050   0.000000   0.000000
   39       42.944940     42.944977   0.000000   0.000000
   40       42.944956     42.945020   0.000000   0.000000
   41       47.008561     47.008662   0.000000   0.000000
   42       47.008832     47.009799   0.000000   0.000000
   43       49.861111     49.861935   0.000000   0.000000
   44       49.865617     49.868704   0.000000   0.000000
   45       50.323292     50.323492   0.000000   0.000000
   46       50.348015     50.343586   0.000000   0.000000
   47       55.241648     55.313391   0.000000   0.000000
   48       55.455696     55.497685   0.000000   0.000000
   49       56.236869     56.221745   0.000000   0.000000
   50       57.026782     56.848713   0.000000   0.000000
   51       57.184953     57.029043   0.000000   0.000000
   52       57.501228     57.452438   0.000000   0.000000
   53       57.936881     57.976293   0.000000   0.000000
   54       58.415081     58.317872   0.000000   0.000000
 
 -0.2500000E+00  0.5000000E+00  0.2500000E+00  0.9375000E-01
    1       -4.912698     -4.912701   1.000000   1.000000
    2       -4.912698     -4.912701   1.000000   1.000000
    3       -0.066089     -0.066092   1.000000   1.000000
    4       -0.066089     -0.066092   1.000000   1.000000
    5        8.285204      8.285193   0.000000   0.000000
    6        8.285205      8.285193   0.000000   0.000000
    7        8.620178      8.620186   0.000000   0.000000
    8        8.620178      8.620186   0.000000   0.000000
    9       14.945343     14.945344   0.000000   0.000000
   10       14.945343     14.945344   0.000000   0.000000
   11       16.822144     16.822134   0.000000   0.000000
   12       16.822144     16.822134   0.000000   0.000000
   13       20.223046     20.223069   0.000000   0.000000
   14       20.223046     20.223069   0.000000   0.000000
   15       21.078555     21.078547   0.000000   0.000000
   16       21.078555     21.078547   0.000000   0.000000
   17       23.384614     23.384607   0.000000   0.000000
   18       23.384614     23.384607   0.000000   0.000000
   19       24.628411     24.628409   0.000000   0.000000
   20       24.628411     24.628410   0.000000   0.000000
   21       27.092241     27.092243   0.000000   0.000000
   22       27.092241     27.092243   0.000000   0.000000
   23       29.768588     29.768598   0.000000   0.000000
   24       29.768588     29.768599   0.000000   0.000000
   25       29.903623     29.903625   0.000000   0.000000
   26       29.903623     29.903625   0.000000   0.000000
   27       30.563051     30.563040   0.000000   0.000000
   28       30.563051     30.563041   0.000000   0.000000
   29       36.500727     36.500746   0.000000   0.000000
   30       36.500727     36.500747   0.000000   0.000000
   31       38.147140     38.147145   0.000000   0.000000
   32       38.147140     38.147145   0.000000   0.000000
   33       40.127570     40.127578   0.000000   0.000000
   34       40.127571     40.127578   0.000000   0.000000
   35       41.880034     41.880030   0.000000   0.000000
   36       41.880036     41.880035   0.000000   0.000000
   37       44.915186     44.915175   0.000000   0.000000
   38       44.915204     44.915201   0.000000   0.000000
   39       45.907948     45.907961   0.000000   0.000000
   40       45.908476     45.908121   0.000000   0.000000
   41       48.060801     48.060558   0.000000   0.000000
   42       48.062055     48.060814   0.000000   0.000000
   43       48.275637     48.275703   0.000000   0.000000
   44       48.278201     48.276145   0.000000   0.000000
   45       49.504066     49.503531   0.000000   0.000000
   46       49.509605     49.504915   0.000000   0.000000
   47       51.869248     51.867866   0.000000   0.000000
   48       51.892248     51.890716   0.000000   0.000000
   49       55.691293     55.716100   0.000000   0.000000
   50       55.720521     55.839534   0.000000   0.000000
   51       55.770593     55.902147   0.000000   0.000000
   52       57.101884     56.185061   0.000000   0.000000
   53       57.768743     57.379074   0.000000   0.000000
   54       58.645481     58.630030   0.000000   0.000000
