       N       E                     dE             d eps       ncg     rms          ort
DAV:   1    -0.191763622999E+01   -0.19176E+01   -0.49197E+03   448   0.142E+02
DAV:   2    -0.874025093275E+01   -0.68226E+01   -0.68026E+01   448   0.125E+01
DAV:   3    -0.877521892769E+01   -0.34968E-01   -0.34967E-01   448   0.119E+00
DAV:   4    -0.877552002075E+01   -0.30109E-03   -0.30109E-03   448   0.981E-02
DAV:   5    -0.877561026281E+01   -0.90242E-04   -0.60528E-06   448   0.490E-03
SDA:   6    -0.863161684748E+01    0.14399E+00   -0.14001E-01   448   0.350E-01 0.000E+00
DMP:   7    -0.864389912723E+01   -0.12282E-01   -0.12071E-01   448   0.201E-01 0.264E-01
DMP:   8    -0.865376730669E+01   -0.98682E-02   -0.65388E-02   448   0.885E-02 0.196E-01
DMP:   9    -0.865897151662E+01   -0.52042E-02   -0.28356E-02   448   0.339E-02 0.969E-02
DMP:  10    -0.866117221765E+01   -0.22007E-02   -0.10734E-02   448   0.118E-02 0.392E-02
DMP:  11    -0.866194725974E+01   -0.77504E-03   -0.37260E-03   448   0.384E-03 0.143E-02
DMP:  12    -0.866222099978E+01   -0.27374E-03   -0.10665E-03   448   0.993E-04 0.438E-03
DMP:  13    -0.866229413518E+01   -0.73135E-04   -0.24710E-04   448   0.231E-04 0.101E-03
   1 F= -.86622941E+01 E0= -.86623892E+01  d E =0.285074E-03
