       N       E                     dE             d eps       ncg     rms          ort
DAV:   1     0.109016562082E+02    0.10902E+02   -0.44237E+03   432   0.145E+02
DAV:   2    -0.747367098627E+01   -0.18375E+02   -0.16793E+02   432   0.263E+01
DAV:   3    -0.874972449752E+01   -0.12761E+01   -0.12599E+01   432   0.680E+00
DAV:   4    -0.877476817728E+01   -0.25044E-01   -0.25036E-01   432   0.101E+00
DAV:   5    -0.877549453212E+01   -0.72635E-03   -0.72519E-03   432   0.162E-01
SDA:   6    -0.863161624760E+01    0.14388E+00   -0.14079E-01   432   0.352E-01 0.000E+00
DMP:   7    -0.864394439993E+01   -0.12328E-01   -0.12054E-01   432   0.200E-01 0.265E-01
DMP:   8    -0.865394792745E+01   -0.10004E-01   -0.64610E-02   432   0.873E-02 0.194E-01
DMP:   9    -0.865901045112E+01   -0.50625E-02   -0.27982E-02   432   0.335E-02 0.955E-02
DMP:  10    -0.866118083947E+01   -0.21704E-02   -0.10629E-02   432   0.118E-02 0.387E-02
DMP:  11    -0.866194880913E+01   -0.76797E-03   -0.37136E-03   432   0.386E-03 0.142E-02
DMP:  12    -0.866222180155E+01   -0.27299E-03   -0.10686E-03   432   0.100E-03 0.438E-03
DMP:  13    -0.866229501146E+01   -0.73210E-04   -0.24590E-04   432   0.228E-04 0.101E-03
   1 F= -.86622950E+01 E0= -.86623901E+01  d E =0.285411E-03  mag=    -0.0000
