 vasp.5.4.4.18Apr17-6-g9f103f2a35 (build Sep 10 2021 22:26:18) complex          
  
 executed on             LinuxIFC date 2022.02.18  01:34:18
 running on   54 total cores
 distrk:  each k-point on    9 cores,    6 groups
 distr:  one band on NCORES_PER_BAND=   3 cores,    3 groups


--------------------------------------------------------------------------------------------------------


 INCAR:
 POTCAR:    PAW_PBE Ge 05Jan2001                  

 ----------------------------------------------------------------------------- 
|                                                                             |
|           W    W    AA    RRRRR   N    N  II  N    N   GGGG   !!!           |
|           W    W   A  A   R    R  NN   N  II  NN   N  G    G  !!!           |
|           W    W  A    A  R    R  N N  N  II  N N  N  G       !!!           |
|           W WW W  AAAAAA  RRRRR   N  N N  II  N  N N  G  GGG   !            |
|           WW  WW  A    A  R   R   N   NN  II  N   NN  G    G                |
|           W    W  A    A  R    R  N    N  II  N    N   GGGG   !!!           |
|                                                                             |
|      For optimal performance we recommend to set                            |
|        NCORE= 4 - approx SQRT( number of cores)                             |
|      NCORE specifies how many cores store one orbital (NPAR=cpu/NCORE).     |
|      This setting can  greatly improve the performance of VASP for DFT.     |
|      The default,   NCORE=1            might be grossly inefficient         |
|      on modern multi-core architectures or massively parallel machines.     |
|      Do your own testing !!!!                                               |
|      Unfortunately you need to use the default for GW and RPA calculations. |
|      (for HF NCORE is supported but not extensively tested yet)             |
|                                                                             |
 ----------------------------------------------------------------------------- 


 ----------------------------------------------------------------------------- 
|                                                                             |
|           W    W    AA    RRRRR   N    N  II  N    N   GGGG   !!!           |
|           W    W   A  A   R    R  NN   N  II  NN   N  G    G  !!!           |
|           W    W  A    A  R    R  N N  N  II  N N  N  G       !!!           |
|           W WW W  AAAAAA  RRRRR   N  N N  II  N  N N  G  GGG   !            |
|           WW  WW  A    A  R   R   N   NN  II  N   NN  G    G                |
|           W    W  A    A  R    R  N    N  II  N    N   GGGG   !!!           |
|                                                                             |
|      You have enabled k-point parallelism (KPAR>1).                         |
|      This developmental code was originally  written by Paul Kent at ORNL,  |
|      and carefully double checked in Vienna.                                |
|      GW as well as linear response parallelism added by Martijn Marsman     |
|      and Georg Kresse.                                                      |
|      Carefully verify results versus KPAR=1.                                |
|      Report problems to Paul Kent and Vienna.                               |
|                                                                             |
 ----------------------------------------------------------------------------- 

 POTCAR:    PAW_PBE Ge 05Jan2001                  
   VRHFIN =Ge: s2p2                                                             
   LEXCH  = PE                                                                  
   EATOM  =   104.9960 eV,    7.7170 Ry                                         
                                                                                
   TITEL  = PAW_PBE Ge 05Jan2001                                                
   LULTRA =        F    use ultrasoft PP ?                                      
   IUNSCR =        1    unscreen: 0-lin 1-nonlin 2-no                           
   RPACOR =    2.170    partial core radius                                     
   POMASS =   72.610; ZVAL   =    4.000    mass and valenz                      
   RCORE  =    2.300    outmost cutoff radius                                   
   RWIGS  =    2.300; RWIGS  =    1.217    wigner-seitz radius (au A)           
   ENMAX  =  173.807; ENMIN  =  130.355 eV                                      
   ICORE  =        3    local potential                                         
   LCOR   =        T    correct aug charges                                     
   LPAW   =        T    paw PP                                                  
   EAUG   =  385.843                                                            
   DEXC   =    0.000                                                            
   RMAX   =    2.342    core radius for proj-oper                               
   RAUG   =    1.300    factor for augmentation sphere                          
   RDEP   =    2.318    radius for radial grids                                 
   RDEPT  =    2.103    core radius for aug-charge                              
                                                                                
   Atomic configuration                                                         
   10 entries                                                                   
     n  l   j            E        occ.                                          
     1  0  0.50    -10959.8463   2.0000                                         
     2  0  0.50     -1371.6056   2.0000                                         
     2  1  1.50     -1198.4791   6.0000                                         
     3  0  0.50      -168.4733   2.0000                                         
     3  1  1.50      -115.6019   6.0000                                         
     3  2  2.50       -29.3106  10.0000                                         
     4  0  0.50       -11.7309   2.0000                                         
     4  1  0.50        -3.8952   2.0000                                         
     4  2  1.50        -4.0817   0.0000                                         
     4  3  2.50        -4.0817   0.0000                                         
   Description                                                                  
     l       E           TYP  RCUT    TYP  RCUT                                 
     0    -11.7309493     23  2.300                                             
     0     -7.4578696     23  2.300                                             
     1     -3.8952261     23  2.300                                             
     1      6.1178114     23  2.300                                             
     2     -4.0817478     23  2.300                                             
     3     -1.3605826      7  2.300                                             
  local pseudopotential read in
  partial core-charges read in
  partial kinetic energy density read in
  atomic valenz-charges read in
  non local Contribution for L=           0  read in
    real space projection operators read in
  non local Contribution for L=           0  read in
    real space projection operators read in
  non local Contribution for L=           1  read in
    real space projection operators read in
  non local Contribution for L=           1  read in
    real space projection operators read in
  non local Contribution for L=           2  read in
    real space projection operators read in
    PAW grid and wavefunctions read in
 
   number of l-projection  operators is LMAX  =           5
   number of lm-projection operators is LMMAX =          13
 
  PAW_PBE Ge 05Jan2001                  :
 energy of atom  1       EATOM= -104.9960
 kinetic energy error for atom=    0.0003 (will be added to EATOM!!)
 
 
 POSCAR: Ge                                      
  positions in direct lattice
  No initial velocities read in
 exchange correlation table for  LEXCH =        8
   RHO(1)=    0.500       N(1)  =     2000
   RHO(2)=  100.500       N(2)  =     4000
 


--------------------------------------------------------------------------------------------------------


 ion  position               nearest neighbor table
   1  0.000  0.000  0.000-   2 2.44   2 2.44   2 2.44   2 2.44
   2  0.250  0.250  0.250-   1 2.44   1 2.44   1 2.44   1 2.44
 
  LATTYP: Found a face centered cubic cell.
 ALAT       =     5.6330000000
  
  Lattice vectors:
  
 A1 = (   0.0000000000,   2.8165000000,   2.8165000000)
 A2 = (   2.8165000000,   0.0000000000,   2.8165000000)
 A3 = (   2.8165000000,   2.8165000000,   0.0000000000)


Analysis of symmetry for initial positions (statically):
=====================================================================
 Subroutine PRICEL returns:
 Original cell was already a primitive cell.
 

 Routine SETGRP: Setting up the symmetry group for a 
 face centered cubic supercell.


 Subroutine GETGRP returns: Found 48 space group operations
 (whereof 24 operations were pure point group operations)
 out of a pool of 48 trial point group operations.


The static configuration has the point symmetry T_d .
 The point group associated with its full space group is O_h .


Analysis of symmetry for dynamics (positions and initial velocities):
=====================================================================
 Subroutine PRICEL returns:
 Original cell was already a primitive cell.
 

 Routine SETGRP: Setting up the symmetry group for a 
 face centered cubic supercell.


 Subroutine GETGRP returns: Found 48 space group operations
 (whereof 24 operations were pure point group operations)
 out of a pool of 48 trial point group operations.


The dynamic configuration has the point symmetry T_d .
 The point group associated with its full space group is O_h .


Analysis of structural, dynamic, and magnetic symmetry:
=====================================================================
 Subroutine PRICEL returns:
 Original cell was already a primitive cell.
 

 Routine SETGRP: Setting up the symmetry group for a 
 face centered cubic supercell.


 Subroutine GETGRP returns: Found 48 space group operations
 (whereof 24 operations were pure point group operations)
 out of a pool of 48 trial point group operations.


The magnetic configuration has the point symmetry T_d .
 The point group associated with its full space group is O_h .


 Subroutine INISYM returns: Found 48 space group operations
 (whereof 24 operations are pure point group operations),
 and found     1 'primitive' translations

 
 
 KPOINTS: KPOINTS created by Atomic Simulation Env

Automatic generation of k-mesh.
Space group operators:
 irot       det(A)        alpha          n_x          n_y          n_z        tau_x        tau_y        tau_z
    1     1.000000     0.000000     1.000000     0.000000     0.000000     0.000000     0.000000     0.000000
    2     1.000000   120.000000    -0.577350    -0.577350    -0.577350     0.000000     0.000000     0.000000
    3     1.000000   120.000000     0.577350     0.577350     0.577350     0.000000     0.000000     0.000000
    4    -1.000000    90.000000     0.000000     0.000000    -1.000000     0.000000     0.000000     0.000000
    5    -1.000000   180.000000     0.000000     0.707107     0.707107     0.000000     0.000000     0.000000
    6    -1.000000    90.000000     0.000000     1.000000     0.000000     0.000000     0.000000     0.000000
    7     1.000000   180.000000     0.000000     0.000000     1.000000     0.000000     0.000000     0.000000
    8     1.000000   120.000000    -0.577350     0.577350     0.577350     0.000000     0.000000     0.000000
    9     1.000000   120.000000    -0.577350     0.577350    -0.577350     0.000000     0.000000     0.000000
   10    -1.000000    90.000000     0.000000     0.000000     1.000000     0.000000     0.000000     0.000000
   11    -1.000000    90.000000    -1.000000     0.000000     0.000000     0.000000     0.000000     0.000000
   12    -1.000000   180.000000     0.707107     0.000000     0.707107     0.000000     0.000000     0.000000
   13     1.000000   120.000000     0.577350    -0.577350     0.577350     0.000000     0.000000     0.000000
   14     1.000000   120.000000    -0.577350    -0.577350     0.577350     0.000000     0.000000     0.000000
   15     1.000000   180.000000     1.000000     0.000000     0.000000     0.000000     0.000000     0.000000
   16    -1.000000    90.000000     0.000000    -1.000000     0.000000     0.000000     0.000000     0.000000
   17    -1.000000   180.000000     0.707107     0.707107     0.000000     0.000000     0.000000     0.000000
   18    -1.000000    90.000000     1.000000     0.000000     0.000000     0.000000     0.000000     0.000000
   19     1.000000   120.000000     0.577350    -0.577350    -0.577350     0.000000     0.000000     0.000000
   20     1.000000   180.000000     0.000000     1.000000     0.000000     0.000000     0.000000     0.000000
   21     1.000000   120.000000     0.577350     0.577350    -0.577350     0.000000     0.000000     0.000000
   22    -1.000000   180.000000     0.000000    -0.707107     0.707107     0.000000     0.000000     0.000000
   23    -1.000000   180.000000     0.707107    -0.707107     0.000000     0.000000     0.000000     0.000000
   24    -1.000000   180.000000     0.707107     0.000000    -0.707107     0.000000     0.000000     0.000000
   25    -1.000000     0.000000     1.000000     0.000000     0.000000     0.250000     0.250000     0.250000
   26    -1.000000   120.000000    -0.577350    -0.577350    -0.577350     0.250000     0.250000     0.250000
   27    -1.000000   120.000000     0.577350     0.577350     0.577350     0.250000     0.250000     0.250000
   28     1.000000    90.000000     0.000000     0.000000    -1.000000     0.250000     0.250000     0.250000
   29     1.000000   180.000000     0.000000     0.707107     0.707107     0.250000     0.250000     0.250000
   30     1.000000    90.000000     0.000000     1.000000     0.000000     0.250000     0.250000     0.250000
   31    -1.000000   180.000000     0.000000     0.000000     1.000000     0.250000     0.250000     0.250000
   32    -1.000000   120.000000    -0.577350     0.577350     0.577350     0.250000     0.250000     0.250000
   33    -1.000000   120.000000    -0.577350     0.577350    -0.577350     0.250000     0.250000     0.250000
   34     1.000000    90.000000     0.000000     0.000000     1.000000     0.250000     0.250000     0.250000
   35     1.000000    90.000000    -1.000000     0.000000     0.000000     0.250000     0.250000     0.250000
   36     1.000000   180.000000     0.707107     0.000000     0.707107     0.250000     0.250000     0.250000
   37    -1.000000   120.000000     0.577350    -0.577350     0.577350     0.250000     0.250000     0.250000
   38    -1.000000   120.000000    -0.577350    -0.577350     0.577350     0.250000     0.250000     0.250000
   39    -1.000000   180.000000     1.000000     0.000000     0.000000     0.250000     0.250000     0.250000
   40     1.000000    90.000000     0.000000    -1.000000     0.000000     0.250000     0.250000     0.250000
   41     1.000000   180.000000     0.707107     0.707107     0.000000     0.250000     0.250000     0.250000
   42     1.000000    90.000000     1.000000     0.000000     0.000000     0.250000     0.250000     0.250000
   43    -1.000000   120.000000     0.577350    -0.577350    -0.577350     0.250000     0.250000     0.250000
   44    -1.000000   180.000000     0.000000     1.000000     0.000000     0.250000     0.250000     0.250000
   45    -1.000000   120.000000     0.577350     0.577350    -0.577350     0.250000     0.250000     0.250000
   46     1.000000   180.000000     0.000000    -0.707107     0.707107     0.250000     0.250000     0.250000
   47     1.000000   180.000000     0.707107    -0.707107     0.000000     0.250000     0.250000     0.250000
   48     1.000000   180.000000     0.707107     0.000000    -0.707107     0.250000     0.250000     0.250000
 
 Subroutine IBZKPT returns following result:
 ===========================================
 
 Found      8 irreducible k-points:
 
 Following reciprocal coordinates:
            Coordinates               Weight
  0.000000  0.000000  0.000000      1.000000
  0.250000  0.000000  0.000000      8.000000
  0.500000  0.000000  0.000000      4.000000
  0.250000  0.250000  0.000000      6.000000
  0.500000  0.250000  0.000000     24.000000
 -0.250000  0.250000  0.000000     12.000000
  0.500000  0.500000  0.000000      3.000000
 -0.250000  0.500000  0.250000      6.000000
 
 Following cartesian coordinates:
            Coordinates               Weight
  0.000000  0.000000  0.000000      1.000000
 -0.044381  0.044381  0.044381      8.000000
 -0.088763  0.088763  0.088763      4.000000
  0.000000  0.000000  0.088763      6.000000
 -0.044381  0.044381  0.133144     24.000000
  0.088763 -0.088763  0.000000     12.000000
  0.000000  0.000000  0.177525      3.000000
  0.177525 -0.088763  0.000000      6.000000
 


--------------------------------------------------------------------------------------------------------




 Dimension of arrays:
   k-points           NKPTS =      8   k-points in BZ     NKDIM =      8   number of bands    NBANDS=     54
   number of dos      NEDOS =    301   number of ions     NIONS =      2
   non local maximal  LDIM  =      5   non local SUM 2l+1 LMDIM =     13
   total plane-waves  NPLWV =  13824
   max r-space proj   IRMAX =      1   max aug-charges    IRDMAX=  17012
   dimension x,y,z NGX =    24 NGY =   24 NGZ =   24
   dimension x,y,z NGXF=    48 NGYF=   48 NGZF=   48
   support grid    NGXF=    48 NGYF=   48 NGZF=   48
   ions per type =               2
   NGX,Y,Z   is equivalent  to a cutoff of  10.02, 10.02, 10.02 a.u.
   NGXF,Y,Z  is equivalent  to a cutoff of  20.03, 20.03, 20.03 a.u.

 SYSTEM =  unknown system                          
 POSCAR =  Ge                                      

 Startparameter for this run:
   NWRITE =      2    write-flag & timer
   PREC   = n         normal or accurate (medium, high low for compatibility)
   ISTART =      0    job   : 0-new  1-cont  2-samecut
   ICHARG =      2    charge: 1-file 2-atom 10-const
   ISPIN  =      2    spin polarized calculation?
   LNONCOLLINEAR =      F non collinear calculations
   LSORBIT =      F    spin-orbit coupling
   INIWAV =      1    electr: 0-lowe 1-rand  2-diag
   LASPH  =      F    aspherical Exc in radial PAW
   METAGGA=      F    non-selfconsistent MetaGGA calc.

 Electronic Relaxation 1
   ENCUT  =  450.0 eV  33.07 Ry    5.75 a.u.   6.89  6.89  6.89*2*pi/ulx,y,z
   ENINI  =  450.0     initial cutoff
   ENAUG  =  385.8 eV  augmentation charge cutoff
   NELM   =     60;   NELMIN=  2; NELMDL= -5     # of ELM steps 
   EDIFF  = 0.1E-03   stopping-criterion for ELM
   LREAL  =      F    real-space projection
   NLSPLINE    = F    spline interpolate recip. space projectors
   LCOMPAT=      F    compatible to vasp.4.4
   GGA_COMPAT  = T    GGA compatible to vasp.4.4-vasp.4.6
   LMAXPAW     = -100 max onsite density
   LMAXMIX     =    2 max onsite mixed and CHGCAR
   VOSKOWN=      0    Vosko Wilk Nusair interpolation
   ROPT   =    0.00000
 Ionic relaxation
   EDIFFG = 0.1E-02   stopping-criterion for IOM
   NSW    =      0    number of steps for IOM
   NBLOCK =      1;   KBLOCK =      1    inner block; outer block 
   IBRION =     -1    ionic relax: 0-MD 1-quasi-New 2-CG
   NFREE  =      0    steps in history (QN), initial steepest desc. (CG)
   ISIF   =      2    stress and relaxation
   IWAVPR =     10    prediction:  0-non 1-charg 2-wave 3-comb
   ISYM   =      2    0-nonsym 1-usesym 2-fastsym
   LCORR  =      T    Harris-Foulkes like correction to forces

   POTIM  = 0.5000    time-step for ionic-motion
   TEIN   =    0.0    initial temperature
   TEBEG  =    0.0;   TEEND  =   0.0 temperature during run
   SMASS  =  -3.00    Nose mass-parameter (am)
   estimated Nose-frequenzy (Omega)   =  0.10E-29 period in steps =****** mass=  -0.363E-27a.u.
   SCALEE = 1.0000    scale energy and forces
   NPACO  =    256;   APACO  = 16.0  distance and # of slots for P.C.
   PSTRESS=    0.0 pullay stress

  Mass of Ions in am
   POMASS =  72.61
  Ionic Valenz
   ZVAL   =   4.00
  Atomic Wigner-Seitz radii
   RWIGS  =  -1.00
  virtual crystal weights 
   VCA    =   1.00
   NELECT =       8.0000    total number of electrons
   NUPDOWN=      -1.0000    fix difference up-down

 DOS related values:
   EMIN   =  10.00;   EMAX   =-10.00  energy-range for DOS
   EFERMI =   0.00
   ISMEAR =     1;   SIGMA  =   0.05  broadening in eV -4-tet -1-fermi 0-gaus

 Electronic relaxation 2 (details)
   IALGO  =     53    algorithm
   LDIAG  =      T    sub-space diagonalisation (order eigenvalues)
   LSUBROT=      F    optimize rotation matrix (better conditioning)
   TURBO    =      0    0=normal 1=particle mesh
   IRESTART =      0    0=no restart 2=restart with 2 vectors
   NREBOOT  =      0    no. of reboots
   NMIN     =      0    reboot dimension
   EREF     =   0.00    reference energy to select bands
   IMIX   =      4    mixing-type and parameters
     AMIX     =   0.40;   BMIX     =  1.00
     AMIX_MAG =   1.60;   BMIX_MAG =  1.00
     AMIN     =   0.10
     WC   =   100.;   INIMIX=   1;  MIXPRE=   1;  MAXMIX= -45

 Intra band minimization:
   WEIMIN = 0.0000     energy-eigenvalue tresh-hold
   EBREAK =  0.46E-06  absolut break condition
   DEPER  =   0.30     relativ break condition  

   TIME   =   0.40     timestep for ELM

  volume/ion in A,a.u.               =      22.34       150.77
  Fermi-wavevector in a.u.,A,eV,Ry     =   0.922681  1.743615 11.583196  0.851341
  Thomas-Fermi vector in A             =   2.048235
 
 Write flags
   LWAVE        =      T    write WAVECAR
   LDOWNSAMPLE  =      F    k-point downsampling of WAVECAR
   LCHARG       =      T    write CHGCAR
   LVTOT        =      F    write LOCPOT, total local potential
   LVHAR        =      F    write LOCPOT, Hartree potential only
   LELF         =      F    write electronic localiz. function (ELF)
   LORBIT       =      0    0 simple, 1 ext, 2 COOP (PROOUT), +10 PAW based schemes


 Dipole corrections
   LMONO  =      F    monopole corrections only (constant potential shift)
   LDIPOL =      F    correct potential (dipole corrections)
   IDIPOL =      0    1-x, 2-y, 3-z, 4-all directions 
   EPSILON=  1.0000000 bulk dielectric constant

 Exchange correlation treatment:
   GGA     =    PE    GGA type
   LEXCH   =     8    internal setting for exchange type
   VOSKOWN=      0    Vosko Wilk Nusair interpolation
   LHFCALC =     F    Hartree Fock is set to
   LHFONE  =     F    Hartree Fock one center treatment
   AEXX    =    0.0000 exact exchange contribution

 Linear response parameters
   LEPSILON=     F    determine dielectric tensor
   LRPA    =     F    only Hartree local field effects (RPA)
   LNABLA  =     F    use nabla operator in PAW spheres
   LVEL    =     F    velocity operator in full k-point grid
   LINTERFAST=   F  fast interpolation
   KINTER  =     0    interpolate to denser k-point grid
   CSHIFT  =0.1000    complex shift for real part using Kramers Kronig
   OMEGAMAX=  -1.0    maximum frequency
   DEG_THRESHOLD= 0.2000000E-02 threshold for treating states as degnerate
   RTIME   =   -0.100 relaxation time in fs
  (WPLASMAI=    0.000 imaginary part of plasma frequency in eV, 0.658/RTIME)
   DFIELD  = 0.0000000 0.0000000 0.0000000 field for delta impulse in time
 
 Orbital magnetization related:
   ORBITALMAG=     F  switch on orbital magnetization
   LCHIMAG   =     F  perturbation theory with respect to B field
   DQ        =  0.001000  dq finite difference perturbation B field
   LLRAUG    =     F  two centre corrections for induced B field



--------------------------------------------------------------------------------------------------------


 Static calculation
 charge density and potential will be updated during run
 spin polarized calculation
 Conjugate gradient for all bands (Freysoldt, et al. PRB 79, 241103 (2009))
 perform sub-space diagonalisation
    before iterative eigenvector-optimisation
 modified Broyden-mixing scheme, WC =      100.0
 initial mixing is a Kerker type mixing with AMIX =  0.4000 and BMIX =      1.0000
 Hartree-type preconditioning will be used
 using additional bands           50
 reciprocal scheme for non local part
 use partial core corrections
 no Harris-corrections to forces 
 use gradient corrections 
 use of overlap-Matrix (Vanderbilt PP)
 Methfessel and Paxton  Order N= 1 SIGMA  =   0.05


--------------------------------------------------------------------------------------------------------


  energy-cutoff  :      450.00
  volume of cell :       44.68
      direct lattice vectors                 reciprocal lattice vectors
     0.000000000  2.816500000  2.816500000    -0.177525297  0.177525297  0.177525297
     2.816500000  0.000000000  2.816500000     0.177525297 -0.177525297  0.177525297
     2.816500000  2.816500000  0.000000000     0.177525297  0.177525297 -0.177525297

  length of vectors
     3.983132498  3.983132498  3.983132498     0.307482835  0.307482835  0.307482835


 
 k-points in units of 2pi/SCALE and weight: KPOINTS created by Atomic Simulation Env
   0.00000000  0.00000000  0.00000000       0.016
  -0.04438132  0.04438132  0.04438132       0.125
  -0.08876265  0.08876265  0.08876265       0.062
   0.00000000  0.00000000  0.08876265       0.094
  -0.04438132  0.04438132  0.13314397       0.375
   0.08876265 -0.08876265  0.00000000       0.188
   0.00000000  0.00000000  0.17752530       0.047
   0.17752530 -0.08876265  0.00000000       0.094
 
 k-points in reciprocal lattice and weights: KPOINTS created by Atomic Simulation Env
   0.00000000  0.00000000  0.00000000       0.016
   0.25000000  0.00000000  0.00000000       0.125
   0.50000000  0.00000000  0.00000000       0.062
   0.25000000  0.25000000  0.00000000       0.094
   0.50000000  0.25000000  0.00000000       0.375
  -0.25000000  0.25000000  0.00000000       0.188
   0.50000000  0.50000000  0.00000000       0.047
  -0.25000000  0.50000000  0.25000000       0.094
 
 position of ions in fractional coordinates (direct lattice) 
   0.00000000  0.00000000  0.00000000
   0.25000000  0.25000000  0.25000000
 
 position of ions in cartesian coordinates  (Angst):
   0.00000000  0.00000000  0.00000000
   1.40825000  1.40825000  1.40825000
 


--------------------------------------------------------------------------------------------------------


 k-point  1 :   0.0000 0.0000 0.0000  plane waves:     941
 k-point  2 :   0.2500 0.0000 0.0000  plane waves:     959
 k-point  3 :   0.5000 0.0000 0.0000  plane waves:     978
 k-point  4 :   0.2500 0.2500 0.0000  plane waves:     982
 k-point  5 :   0.5000 0.2500 0.0000  plane waves:     971
 k-point  6 :  -0.2500 0.2500 0.0000  plane waves:     975
 k-point  7 :   0.5000 0.5000 0.0000  plane waves:     982
 k-point  8 :  -0.2500 0.5000 0.2500  plane waves:     952

 maximum and minimum number of plane-waves per node :       334      313

 maximum number of plane-waves:       982
 maximum index in each direction: 
   IXMAX=    7   IYMAX=    6   IZMAX=    6
   IXMIN=   -7   IYMIN=   -7   IZMIN=   -7


 parallel 3D FFT for wavefunctions:
    minimum data exchange during FFTs selected (reduces bandwidth)
 parallel 3D FFT for charge:
    minimum data exchange during FFTs selected (reduces bandwidth)


 total amount of memory used by VASP MPI-rank0    38225. kBytes
=======================================================================

   base      :      30000. kBytes
   nonl-proj :        287. kBytes
   fftplans  :       1049. kBytes
   grid      :       2064. kBytes
   one-center:         16. kBytes
   wavefun   :       4809. kBytes
 
     INWAV:  cpu time    0.0001: real time    0.0006
 Broyden mixing: mesh for mixing (old mesh)
   NGX = 13   NGY = 13   NGZ = 13
  (NGX  = 48   NGY  = 48   NGZ  = 48)
  gives a total of   2197 points

 initial charge density was supplied:
 charge density of overlapping atoms calculated
 number of electron       8.0000000 magnetization       0.0000000
 keeping initial charge density in first step


--------------------------------------------------------------------------------------------------------


 Maximum index for augmentation-charges         2284 (set IRDMAX)


--------------------------------------------------------------------------------------------------------


 First call to EWALD:  gamma=   0.499
 Maximum number of real-space cells 3x 3x 3
 Maximum number of reciprocal cells 3x 3x 3

    FEWALD:  cpu time    0.0015: real time    0.0015


--------------------------------------- Iteration      1(   1)  ---------------------------------------


    POTLOK:  cpu time    0.0352: real time    0.0352
    SETDIJ:  cpu time    0.0104: real time    0.0104
    TRIAL :  cpu time    0.1705: real time    0.1708
    CORREC:  cpu time    0.0007: real time    0.0007
    --------------------------------------------
      LOOP:  cpu time    0.2215: real time    0.2219

 eigenvalue-minimisations  :  2322
 total energy-change (2. order) : 0.1090166E+02  (-0.4423691E+03)
 number of electron       8.0000000 magnetization       0.0000000
 augmentation part        8.0000000 magnetization       0.0000000

 Free energy of the ion-electron system (eV)
  ---------------------------------------------------
  alpha Z        PSCENC =        17.10940282
  Ewald energy   TEWEN  =      -220.32663596
  -Hartree energ DENC   =       -12.42928696
  -exchange      EXHF   =         0.00000000
  -V(xc)+E(xc)   XCENC  =       -14.98288157
  PAW double counting   =       176.29039040     -147.31525009
  entropy T*S    EENTRO =        -0.00050808
  eigenvalues    EBANDS =         2.56497507
  atomic energy  EATOM  =       209.99145059
  ---------------------------------------------------
  free energy    TOTEN  =        10.90165621 eV

  energy without entropy =       10.90216429  energy(sigma->0) =       10.90182557


--------------------------------------------------------------------------------------------------------




--------------------------------------- Iteration      1(   2)  ---------------------------------------


    TRIAL :  cpu time    0.2038: real time    0.2041
    CORREC:  cpu time    0.0005: real time    0.0005
    --------------------------------------------
      LOOP:  cpu time    0.2046: real time    0.2122

 eigenvalue-minimisations  :  3114
 total energy-change (2. order) :-0.1837533E+02  (-0.1679254E+02)
 number of electron       8.0000000 magnetization       0.0000000
 augmentation part        8.0000000 magnetization       0.0000000

 Free energy of the ion-electron system (eV)
  ---------------------------------------------------
  alpha Z        PSCENC =        17.10940282
  Ewald energy   TEWEN  =      -220.32663596
  -Hartree energ DENC   =       -12.42928696
  -exchange      EXHF   =         0.00000000
  -V(xc)+E(xc)   XCENC  =       -14.98288157
  PAW double counting   =       176.29039040     -147.31525009
  entropy T*S    EENTRO =         0.00009755
  eigenvalues    EBANDS =       -15.81095776
  atomic energy  EATOM  =       209.99145059
  ---------------------------------------------------
  free energy    TOTEN  =        -7.47367099 eV

  energy without entropy =       -7.47376854  energy(sigma->0) =       -7.47370350


--------------------------------------------------------------------------------------------------------




--------------------------------------- Iteration      1(   3)  ---------------------------------------


    TRIAL :  cpu time    0.1947: real time    0.1950
    CORREC:  cpu time    0.0005: real time    0.0005
    --------------------------------------------
      LOOP:  cpu time    0.1954: real time    0.1957

 eigenvalue-minimisations  :  3033
 total energy-change (2. order) :-0.1276054E+01  (-0.1259945E+01)
 number of electron       8.0000000 magnetization       0.0000000
 augmentation part        8.0000000 magnetization       0.0000000

 Free energy of the ion-electron system (eV)
  ---------------------------------------------------
  alpha Z        PSCENC =        17.10940282
  Ewald energy   TEWEN  =      -220.32663596
  -Hartree energ DENC   =       -12.42928696
  -exchange      EXHF   =         0.00000000
  -V(xc)+E(xc)   XCENC  =       -14.98288157
  PAW double counting   =       176.29039040     -147.31525009
  entropy T*S    EENTRO =         0.00006096
  eigenvalues    EBANDS =       -17.08697468
  atomic energy  EATOM  =       209.99145059
  ---------------------------------------------------
  free energy    TOTEN  =        -8.74972450 eV

  energy without entropy =       -8.74978546  energy(sigma->0) =       -8.74974482


--------------------------------------------------------------------------------------------------------




--------------------------------------- Iteration      1(   4)  ---------------------------------------


    TRIAL :  cpu time    0.2046: real time    0.2051
    CORREC:  cpu time    0.0005: real time    0.0005
    --------------------------------------------
      LOOP:  cpu time    0.2053: real time    0.2059

 eigenvalue-minimisations  :  3078
 total energy-change (2. order) :-0.2504368E-01  (-0.2503579E-01)
 number of electron       8.0000000 magnetization       0.0000000
 augmentation part        8.0000000 magnetization       0.0000000

 Free energy of the ion-electron system (eV)
  ---------------------------------------------------
  alpha Z        PSCENC =        17.10940282
  Ewald energy   TEWEN  =      -220.32663596
  -Hartree energ DENC   =       -12.42928696
  -exchange      EXHF   =         0.00000000
  -V(xc)+E(xc)   XCENC  =       -14.98288157
  PAW double counting   =       176.29039040     -147.31525009
  entropy T*S    EENTRO =         0.00014324
  eigenvalues    EBANDS =       -17.11210063
  atomic energy  EATOM  =       209.99145059
  ---------------------------------------------------
  free energy    TOTEN  =        -8.77476818 eV

  energy without entropy =       -8.77491141  energy(sigma->0) =       -8.77481592


--------------------------------------------------------------------------------------------------------




--------------------------------------- Iteration      1(   5)  ---------------------------------------


    TRIAL :  cpu time    0.1964: real time    0.1967
    CORREC:  cpu time    0.0008: real time    0.0008
    CHARGE:  cpu time    0.0149: real time    0.0149
    --------------------------------------------
      LOOP:  cpu time    0.2124: real time    0.2127

 eigenvalue-minimisations  :  3042
 total energy-change (2. order) :-0.7263548E-03  (-0.7251927E-03)
 number of electron       7.9999998 magnetization      -0.0000021
 augmentation part       -1.2912261 magnetization       0.0000216

 Free energy of the ion-electron system (eV)
  ---------------------------------------------------
  alpha Z        PSCENC =        17.10940282
  Ewald energy   TEWEN  =      -220.32663596
  -Hartree energ DENC   =       -12.42928696
  -exchange      EXHF   =         0.00000000
  -V(xc)+E(xc)   XCENC  =       -14.98288157
  PAW double counting   =       176.29039040     -147.31525009
  entropy T*S    EENTRO =         0.00014346
  eigenvalues    EBANDS =       -17.11282721
  atomic energy  EATOM  =       209.99145059
  ---------------------------------------------------
  free energy    TOTEN  =        -8.77549453 eV

  energy without entropy =       -8.77563799  energy(sigma->0) =       -8.77554235


--------------------------------------------------------------------------------------------------------




--------------------------------------- Iteration      1(   6)  ---------------------------------------


    POTLOK:  cpu time    0.0351: real time    0.0351
    SETDIJ:  cpu time    0.0083: real time    0.0083
    TRIAL :  cpu time    0.0838: real time    0.0845
    CORREC:  cpu time    0.0007: real time    0.0007
    CHARGE:  cpu time    0.0138: real time    0.0138
    --------------------------------------------
      LOOP:  cpu time    0.1420: real time    0.1428

 eigenvalue-minimisations  :     0
 total energy-change (2. order) : 0.1438783E+00  (-0.1407929E-01)
 number of electron       7.9999998 magnetization      -0.0000006
 augmentation part       -1.2854761 magnetization      -0.0000057

 Free energy of the ion-electron system (eV)
  ---------------------------------------------------
  alpha Z        PSCENC =        17.10940282
  Ewald energy   TEWEN  =      -220.32663596
  -Hartree energ DENC   =       -16.57932512
  -exchange      EXHF   =         0.00000000
  -V(xc)+E(xc)   XCENC  =       -14.30260528
  PAW double counting   =       471.17715954     -442.59964299
  entropy T*S    EENTRO =         0.00014035
  eigenvalues    EBANDS =       -13.10156330
  atomic energy  EATOM  =       209.99145059
  ---------------------------------------------------
  free energy    TOTEN  =        -8.63161625 eV

  energy without entropy =       -8.63175660  energy(sigma->0) =       -8.63166303


--------------------------------------------------------------------------------------------------------




--------------------------------------- Iteration      1(   7)  ---------------------------------------


    POTLOK:  cpu time    0.0348: real time    0.0348
    SETDIJ:  cpu time    0.0089: real time    0.0089
    TRIAL :  cpu time    0.0803: real time    0.0811
    CORREC:  cpu time    0.0007: real time    0.0007
    CHARGE:  cpu time    0.0147: real time    0.0147
    --------------------------------------------
      LOOP:  cpu time    0.1397: real time    0.1405

 eigenvalue-minimisations  :     0
 total energy-change (2. order) :-0.1232815E-01  (-0.1205429E-01)
 number of electron       7.9999998 magnetization      -0.0000005
 augmentation part       -1.2790644 magnetization      -0.0000273

 Free energy of the ion-electron system (eV)
  ---------------------------------------------------
  alpha Z        PSCENC =        17.10940282
  Ewald energy   TEWEN  =      -220.32663596
  -Hartree energ DENC   =       -16.40447692
  -exchange      EXHF   =         0.00000000
  -V(xc)+E(xc)   XCENC  =       -14.30571627
  PAW double counting   =       473.40059129     -444.81587232
  entropy T*S    EENTRO =         0.00006019
  eigenvalues    EBANDS =       -13.29282797
  atomic energy  EATOM  =       209.99145059
  ---------------------------------------------------
  free energy    TOTEN  =        -8.64394440 eV

  energy without entropy =       -8.64400459  energy(sigma->0) =       -8.64396446


--------------------------------------------------------------------------------------------------------




--------------------------------------- Iteration      1(   8)  ---------------------------------------


    POTLOK:  cpu time    0.0375: real time    0.0413
    SETDIJ:  cpu time    0.0085: real time    0.0085
    TRIAL :  cpu time    0.0825: real time    0.0842
    CORREC:  cpu time    0.0007: real time    0.0007
    CHARGE:  cpu time    0.0137: real time    0.0137
    --------------------------------------------
      LOOP:  cpu time    0.1432: real time    0.1487

 eigenvalue-minimisations  :     0
 total energy-change (2. order) :-0.1000353E-01  (-0.6461003E-02)
 number of electron       7.9999998 magnetization       0.0000011
 augmentation part       -1.2740036 magnetization      -0.0000348

 Free energy of the ion-electron system (eV)
  ---------------------------------------------------
  alpha Z        PSCENC =        17.10940282
  Ewald energy   TEWEN  =      -220.32663596
  -Hartree energ DENC   =       -16.20363340
  -exchange      EXHF   =         0.00000000
  -V(xc)+E(xc)   XCENC  =       -14.30973935
  PAW double counting   =       475.61223638     -447.01959036
  entropy T*S    EENTRO =         0.00013731
  eigenvalues    EBANDS =       -13.50749883
  atomic energy  EATOM  =       209.99145059
  ---------------------------------------------------
  free energy    TOTEN  =        -8.65394793 eV

  energy without entropy =       -8.65408524  energy(sigma->0) =       -8.65399370


--------------------------------------------------------------------------------------------------------




--------------------------------------- Iteration      1(   9)  ---------------------------------------


    POTLOK:  cpu time    0.0352: real time    0.0376
    SETDIJ:  cpu time    0.0083: real time    0.0083
    TRIAL :  cpu time    0.0804: real time    0.0813
    CORREC:  cpu time    0.0007: real time    0.0007
    CHARGE:  cpu time    0.0138: real time    0.0138
    --------------------------------------------
      LOOP:  cpu time    0.1389: real time    0.1429

 eigenvalue-minimisations  :     0
 total energy-change (2. order) :-0.5062524E-02  (-0.2798153E-02)
 number of electron       7.9999998 magnetization       0.0000010
 augmentation part       -1.2707081 magnetization      -0.0000308

 Free energy of the ion-electron system (eV)
  ---------------------------------------------------
  alpha Z        PSCENC =        17.10940282
  Ewald energy   TEWEN  =      -220.32663596
  -Hartree energ DENC   =       -16.03736873
  -exchange      EXHF   =         0.00000000
  -V(xc)+E(xc)   XCENC  =       -14.31368155
  PAW double counting   =       476.98715251     -448.38836685
  entropy T*S    EENTRO =         0.00013694
  eigenvalues    EBANDS =       -13.68110059
  atomic energy  EATOM  =       209.99145059
  ---------------------------------------------------
  free energy    TOTEN  =        -8.65901045 eV

  energy without entropy =       -8.65914739  energy(sigma->0) =       -8.65905610


--------------------------------------------------------------------------------------------------------




--------------------------------------- Iteration      1(  10)  ---------------------------------------


    POTLOK:  cpu time    0.0347: real time    0.0347
    SETDIJ:  cpu time    0.0086: real time    0.0086
    TRIAL :  cpu time    0.0802: real time    0.0813
    CORREC:  cpu time    0.0007: real time    0.0007
    CHARGE:  cpu time    0.0137: real time    0.0137
    --------------------------------------------
      LOOP:  cpu time    0.1382: real time    0.1393

 eigenvalue-minimisations  :     0
 total energy-change (2. order) :-0.2170388E-02  (-0.1062892E-02)
 number of electron       7.9999998 magnetization      -0.0000018
 augmentation part       -1.2699341 magnetization      -0.0000204

 Free energy of the ion-electron system (eV)
  ---------------------------------------------------
  alpha Z        PSCENC =        17.10940282
  Ewald energy   TEWEN  =      -220.32663596
  -Hartree energ DENC   =       -15.92085458
  -exchange      EXHF   =         0.00000000
  -V(xc)+E(xc)   XCENC  =       -14.31705595
  PAW double counting   =       477.48393416     -448.88117447
  entropy T*S    EENTRO =         0.00029872
  eigenvalues    EBANDS =       -13.80038438
  atomic energy  EATOM  =       209.99145059
  ---------------------------------------------------
  free energy    TOTEN  =        -8.66118084 eV

  energy without entropy =       -8.66147956  energy(sigma->0) =       -8.66128041


--------------------------------------------------------------------------------------------------------




--------------------------------------- Iteration      1(  11)  ---------------------------------------


    POTLOK:  cpu time    0.0347: real time    0.0347
    SETDIJ:  cpu time    0.0087: real time    0.0087
    TRIAL :  cpu time    0.0801: real time    0.0809
    CORREC:  cpu time    0.0007: real time    0.0007
    CHARGE:  cpu time    0.0136: real time    0.0136
    --------------------------------------------
      LOOP:  cpu time    0.1383: real time    0.1391

 eigenvalue-minimisations  :     0
 total energy-change (2. order) :-0.7679697E-03  (-0.3713609E-03)
 number of electron       7.9999998 magnetization      -0.0000021
 augmentation part       -1.2689357 magnetization      -0.0000109

 Free energy of the ion-electron system (eV)
  ---------------------------------------------------
  alpha Z        PSCENC =        17.10940282
  Ewald energy   TEWEN  =      -220.32663596
  -Hartree energ DENC   =       -15.86128371
  -exchange      EXHF   =         0.00000000
  -V(xc)+E(xc)   XCENC  =       -14.32000400
  PAW double counting   =       477.49157478     -448.88644242
  entropy T*S    EENTRO =         0.00029291
  eigenvalues    EBANDS =       -13.86030962
  atomic energy  EATOM  =       209.99145059
  ---------------------------------------------------
  free energy    TOTEN  =        -8.66194881 eV

  energy without entropy =       -8.66224172  energy(sigma->0) =       -8.66204645


--------------------------------------------------------------------------------------------------------




--------------------------------------- Iteration      1(  12)  ---------------------------------------


    POTLOK:  cpu time    0.0351: real time    0.0351
    SETDIJ:  cpu time    0.0083: real time    0.0083
    TRIAL :  cpu time    0.0800: real time    0.0808
    CORREC:  cpu time    0.0007: real time    0.0007
    CHARGE:  cpu time    0.0138: real time    0.0138
    --------------------------------------------
      LOOP:  cpu time    0.1382: real time    0.1391

 eigenvalue-minimisations  :     0
 total energy-change (2. order) :-0.2729924E-03  (-0.1068626E-03)
 number of electron       7.9999998 magnetization      -0.0000021
 augmentation part       -1.2684528 magnetization      -0.0000041

 Free energy of the ion-electron system (eV)
  ---------------------------------------------------
  alpha Z        PSCENC =        17.10940282
  Ewald energy   TEWEN  =      -220.32663596
  -Hartree energ DENC   =       -15.81910989
  -exchange      EXHF   =         0.00000000
  -V(xc)+E(xc)   XCENC  =       -14.32170231
  PAW double counting   =       477.28866892     -448.68241019
  entropy T*S    EENTRO =         0.00028711
  eigenvalues    EBANDS =       -13.90217869
  atomic energy  EATOM  =       209.99145059
  ---------------------------------------------------
  free energy    TOTEN  =        -8.66222180 eV

  energy without entropy =       -8.66250891  energy(sigma->0) =       -8.66231751


--------------------------------------------------------------------------------------------------------




--------------------------------------- Iteration      1(  13)  ---------------------------------------


    POTLOK:  cpu time    0.0347: real time    0.0347
    SETDIJ:  cpu time    0.0085: real time    0.0085
    TRIAL :  cpu time    0.0800: real time    0.0809
    CORREC:  cpu time    0.0007: real time    0.0007
    EDDIAG:  cpu time    0.0352: real time    0.0353
    CHARGE:  cpu time    0.0136: real time    0.0136
    --------------------------------------------
      LOOP:  cpu time    0.1732: real time    0.1741

 eigenvalue-minimisations  :     0
 total energy-change (2. order) :-0.7320991E-04  (-0.2459015E-04)
 number of electron       7.9999998 magnetization      -0.0000020
 augmentation part       -1.2682677 magnetization      -0.0000004

 Free energy of the ion-electron system (eV)
  ---------------------------------------------------
  alpha Z        PSCENC =        17.10940282
  Ewald energy   TEWEN  =      -220.32663596
  -Hartree energ DENC   =       -15.79725781
  -exchange      EXHF   =         0.00000000
  -V(xc)+E(xc)   XCENC  =       -14.32264674
  PAW double counting   =       477.11419416     -448.50741751
  entropy T*S    EENTRO =         0.00028541
  eigenvalues    EBANDS =       -13.92367167
  atomic energy  EATOM  =       209.99145059
  ---------------------------------------------------
  free energy    TOTEN  =        -8.66229501 eV

  energy without entropy =       -8.66258042  energy(sigma->0) =       -8.66239015


--------------------------------------------------------------------------------------------------------


  average scaling for gradient   1.5573


 average (electrostatic) potential at core
  the test charge radii are     1.1631
  (the norm of the test charge is              1.0000)
       1 -32.8180       2 -32.8180
 
 
 
 E-fermi :   4.0937     XC(G=0):  -9.1509     alpha+bet : -9.2781


 spin component 1

 k-point     1 :       0.0000    0.0000    0.0000
  band No.  band energies     occupation 
      1      -8.9523      1.00000
      2       3.9364      1.00002
      3       3.9364      1.00002
      4       3.9364      1.00002
      5       4.1210      0.12829
      6       6.4499      0.00000
      7       6.4499      0.00000
      8       6.4499      0.00000
      9      10.3841      0.00000
     10      13.1998      0.00000
     11      13.1998      0.00000
     12      14.6513      0.00000
     13      14.6513      0.00000
     14      14.6513      0.00000
     15      17.8089      0.00000
     16      28.2831      0.00000
     17      28.2831      0.00000
     18      28.2831      0.00000
     19      29.1128      0.00000
     20      29.1128      0.00000
     21      29.1128      0.00000
     22      29.4815      0.00000
     23      29.4815      0.00000
     24      30.1732      0.00000
     25      30.1732      0.00000
     26      30.1732      0.00000
     27      38.6789      0.00000
     28      39.1268      0.00000
     29      39.1268      0.00000
     30      39.1268      0.00000
     31      41.9585      0.00000
     32      41.9592      0.00000
     33      42.5157      0.00000
     34      42.5160      0.00000
     35      43.4753      0.00000
     36      43.6937      0.00000
     37      43.6959      0.00000
     38      43.6985      0.00000
     39      44.1012      0.00000
     40      44.1019      0.00000
     41      44.1050      0.00000
     42      44.9041      0.00000
     43      44.9094      0.00000
     44      44.9146      0.00000
     45      45.4089      0.00000
     46      45.4123      0.00000
     47      45.4196      0.00000
     48      46.5191      0.00000
     49      46.5274      0.00000
     50      46.5372      0.00000
     51      50.2338      0.00000
     52      51.9776      0.00000
     53      52.1497      0.00000
     54      52.2945      0.00000

 k-point     2 :       0.2500    0.0000    0.0000
  band No.  band energies     occupation 
      1      -8.2020      1.00000
      2      -0.8093      1.00000
      3       3.0281      1.00000
      4       3.0281      1.00000
      5       4.6449     -0.00000
      6       7.5426      0.00000
      7       7.5426      0.00000
      8       9.6459      0.00000
      9      11.9434      0.00000
     10      12.1297      0.00000
     11      12.1297      0.00000
     12      14.8535      0.00000
     13      18.7489      0.00000
     14      18.7489      0.00000
     15      21.7113      0.00000
     16      21.7701      0.00000
     17      21.7701      0.00000
     18      22.5813      0.00000
     19      29.3365      0.00000
     20      29.3365      0.00000
     21      29.9866      0.00000
     22      29.9866      0.00000
     23      30.7926      0.00000
     24      31.8914      0.00000
     25      32.8075      0.00000
     26      33.9281      0.00000
     27      33.9281      0.00000
     28      36.9089      0.00000
     29      36.9089      0.00000
     30      37.2228      0.00000
     31      37.2228      0.00000
     32      39.1169      0.00000
     33      39.4716      0.00000
     34      39.4716      0.00000
     35      39.8742      0.00000
     36      40.3041      0.00000
     37      42.6983      0.00000
     38      42.6984      0.00000
     39      43.5368      0.00000
     40      44.4950      0.00000
     41      44.7503      0.00000
     42      44.7507      0.00000
     43      45.0266      0.00000
     44      48.8252      0.00000
     45      48.8315      0.00000
     46      49.9219      0.00000
     47      49.9283      0.00000
     48      50.9666      0.00000
     49      51.0764      0.00000
     50      51.0832      0.00000
     51      52.5082      0.00000
     52      53.6613      0.00000
     53      56.7822      0.00000
     54      57.1849      0.00000

 k-point     3 :       0.5000    0.0000    0.0000
  band No.  band energies     occupation 
      1      -6.8351      1.00000
      2      -3.7432      1.00000
      3       2.4958      1.00000
      4       2.4958      1.00000
      5       4.1527     -0.03211
      6       7.6342      0.00000
      7       7.6342      0.00000
      8      11.0265      0.00000
      9      14.5606      0.00000
     10      15.0976      0.00000
     11      15.0976      0.00000
     12      15.1909      0.00000
     13      16.0710      0.00000
     14      16.0710      0.00000
     15      22.7084      0.00000
     16      23.8917      0.00000
     17      25.3668      0.00000
     18      25.3668      0.00000
     19      25.5000      0.00000
     20      25.5000      0.00000
     21      28.8468      0.00000
     22      30.0308      0.00000
     23      30.2837      0.00000
     24      30.2837      0.00000
     25      31.0129      0.00000
     26      31.0129      0.00000
     27      31.6987      0.00000
     28      35.2060      0.00000
     29      35.2060      0.00000
     30      35.3329      0.00000
     31      35.3329      0.00000
     32      36.1537      0.00000
     33      37.2506      0.00000
     34      37.4327      0.00000
     35      42.5203      0.00000
     36      42.5203      0.00000
     37      42.7949      0.00000
     38      43.7775      0.00000
     39      43.7776      0.00000
     40      44.7338      0.00000
     41      48.1149      0.00000
     42      48.1160      0.00000
     43      49.4687      0.00000
     44      49.4691      0.00000
     45      50.2792      0.00000
     46      52.4605      0.00000
     47      52.9090      0.00000
     48      53.0152      0.00000
     49      54.3355      0.00000
     50      54.5442      0.00000
     51      55.2894      0.00000
     52      56.1313      0.00000
     53      57.2779      0.00000
     54      59.3298      0.00000

 k-point     4 :       0.2500    0.2500    0.0000
  band No.  band energies     occupation 
      1      -7.9308      1.00000
      2      -0.7726      1.00000
      3       1.8433      1.00000
      4       1.8433      1.00000
      5       4.9051     -0.00000
      6       6.6914      0.00000
      7       9.7855      0.00000
      8       9.7855      0.00000
      9      11.0506      0.00000
     10      14.1438      0.00000
     11      14.2351      0.00000
     12      16.7508      0.00000
     13      16.7508      0.00000
     14      17.4492      0.00000
     15      21.3785      0.00000
     16      21.3785      0.00000
     17      22.5766      0.00000
     18      23.4817      0.00000
     19      24.4349      0.00000
     20      29.2927      0.00000
     21      30.5613      0.00000
     22      30.5613      0.00000
     23      30.8207      0.00000
     24      31.8786      0.00000
     25      31.8786      0.00000
     26      32.8677      0.00000
     27      33.3698      0.00000
     28      36.7569      0.00000
     29      37.8469      0.00000
     30      37.9128      0.00000
     31      37.9128      0.00000
     32      38.8218      0.00000
     33      38.8218      0.00000
     34      39.8789      0.00000
     35      41.2236      0.00000
     36      41.2236      0.00000
     37      41.7352      0.00000
     38      41.8779      0.00000
     39      42.6753      0.00000
     40      44.8034      0.00000
     41      45.1071      0.00000
     42      45.1073      0.00000
     43      46.7801      0.00000
     44      49.0147      0.00000
     45      49.0168      0.00000
     46      49.2432      0.00000
     47      49.5621      0.00000
     48      50.6889      0.00000
     49      50.6980      0.00000
     50      51.0585      0.00000
     51      52.2691      0.00000
     52      52.3555      0.00000
     53      55.8300      0.00000
     54      57.0246      0.00000

 k-point     5 :       0.5000    0.2500    0.0000
  band No.  band energies     occupation 
      1      -6.4202      1.00000
      2      -3.4973      1.00000
      3       0.1268      1.00000
      4       1.4732      1.00000
      5       5.3178     -0.00000
      6       8.1729      0.00000
      7       9.3809      0.00000
      8      10.1327      0.00000
      9      13.9519      0.00000
     10      15.1792      0.00000
     11      15.7712      0.00000
     12      16.2301      0.00000
     13      17.0631      0.00000
     14      20.5937      0.00000
     15      21.6143      0.00000
     16      22.6331      0.00000
     17      23.1578      0.00000
     18      23.3597      0.00000
     19      23.7034      0.00000
     20      25.5724      0.00000
     21      27.6862      0.00000
     22      28.1842      0.00000
     23      28.8808      0.00000
     24      30.4645      0.00000
     25      31.5008      0.00000
     26      31.8278      0.00000
     27      32.1514      0.00000
     28      33.1803      0.00000
     29      34.7730      0.00000
     30      36.4621      0.00000
     31      37.0070      0.00000
     32      38.5454      0.00000
     33      39.2085      0.00000
     34      39.3248      0.00000
     35      39.7949      0.00000
     36      42.5385      0.00000
     37      44.5003      0.00000
     38      45.0642      0.00000
     39      45.7920      0.00000
     40      45.9566      0.00000
     41      46.1879      0.00000
     42      47.2113      0.00000
     43      47.4898      0.00000
     44      49.0420      0.00000
     45      49.7170      0.00000
     46      50.2763      0.00000
     47      51.4753      0.00000
     48      51.8798      0.00000
     49      53.8328      0.00000
     50      54.6717      0.00000
     51      55.7561      0.00000
     52      56.1023      0.00000
     53      56.7597      0.00000
     54      58.9251      0.00000

 k-point     6 :      -0.2500    0.2500    0.0000
  band No.  band energies     occupation 
      1      -7.0442      1.00000
      2      -2.6259      1.00000
      3      -0.0210      1.00000
      4       2.3916      1.00000
      5       5.9019      0.00000
      6       8.7100      0.00000
      7       9.0829      0.00000
      8       9.2575      0.00000
      9      11.4847      0.00000
     10      13.4043      0.00000
     11      15.8748      0.00000
     12      16.4958      0.00000
     13      17.5868      0.00000
     14      20.2091      0.00000
     15      21.6889      0.00000
     16      22.4423      0.00000
     17      22.6288      0.00000
     18      24.5868      0.00000
     19      25.1802      0.00000
     20      27.0789      0.00000
     21      27.7076      0.00000
     22      28.6918      0.00000
     23      29.5426      0.00000
     24      29.5556      0.00000
     25      31.2784      0.00000
     26      31.5051      0.00000
     27      33.2852      0.00000
     28      33.4941      0.00000
     29      37.3537      0.00000
     30      37.7602      0.00000
     31      37.9626      0.00000
     32      38.2489      0.00000
     33      39.0278      0.00000
     34      39.3866      0.00000
     35      39.4657      0.00000
     36      39.7324      0.00000
     37      39.8954      0.00000
     38      43.9514      0.00000
     39      45.1858      0.00000
     40      46.4845      0.00000
     41      46.9380      0.00000
     42      47.0484      0.00000
     43      49.3930      0.00000
     44      50.1102      0.00000
     45      50.8885      0.00000
     46      51.3975      0.00000
     47      51.4297      0.00000
     48      52.3174      0.00000
     49      52.6179      0.00000
     50      53.9155      0.00000
     51      54.0438      0.00000
     52      56.2549      0.00000
     53      57.3055      0.00000
     54      58.0634      0.00000

 k-point     7 :       0.5000    0.5000    0.0000
  band No.  band energies     occupation 
      1      -5.0154      1.00000
      2      -5.0154      1.00000
      3       0.7880      1.00000
      4       0.7880      1.00000
      5       4.6348     -0.00000
      6       4.6348     -0.00000
      7      13.5102      0.00000
      8      13.5102      0.00000
      9      15.6683      0.00000
     10      15.6683      0.00000
     11      16.4924      0.00000
     12      16.4924      0.00000
     13      17.3553      0.00000
     14      17.3553      0.00000
     15      22.8983      0.00000
     16      22.8983      0.00000
     17      22.9074      0.00000
     18      22.9074      0.00000
     19      22.9284      0.00000
     20      22.9284      0.00000
     21      23.6072      0.00000
     22      23.6072      0.00000
     23      30.8555      0.00000
     24      30.8555      0.00000
     25      32.2957      0.00000
     26      32.2957      0.00000
     27      35.7559      0.00000
     28      35.7559      0.00000
     29      36.4768      0.00000
     30      36.4768      0.00000
     31      38.5674      0.00000
     32      38.5674      0.00000
     33      38.7870      0.00000
     34      38.7870      0.00000
     35      40.1036      0.00000
     36      40.1036      0.00000
     37      42.5420      0.00000
     38      42.5420      0.00000
     39      42.9449      0.00000
     40      42.9450      0.00000
     41      47.0086      0.00000
     42      47.0088      0.00000
     43      49.8611      0.00000
     44      49.8656      0.00000
     45      50.3233      0.00000
     46      50.3480      0.00000
     47      55.2416      0.00000
     48      55.4557      0.00000
     49      56.2369      0.00000
     50      57.0268      0.00000
     51      57.1850      0.00000
     52      57.5012      0.00000
     53      57.9369      0.00000
     54      58.4151      0.00000

 k-point     8 :      -0.2500    0.5000    0.2500
  band No.  band energies     occupation 
      1      -4.9127      1.00000
      2      -4.9127      1.00000
      3      -0.0661      1.00000
      4      -0.0661      1.00000
      5       8.2852      0.00000
      6       8.2852      0.00000
      7       8.6202      0.00000
      8       8.6202      0.00000
      9      14.9453      0.00000
     10      14.9453      0.00000
     11      16.8221      0.00000
     12      16.8221      0.00000
     13      20.2230      0.00000
     14      20.2230      0.00000
     15      21.0786      0.00000
     16      21.0786      0.00000
     17      23.3846      0.00000
     18      23.3846      0.00000
     19      24.6284      0.00000
     20      24.6284      0.00000
     21      27.0922      0.00000
     22      27.0922      0.00000
     23      29.7686      0.00000
     24      29.7686      0.00000
     25      29.9036      0.00000
     26      29.9036      0.00000
     27      30.5631      0.00000
     28      30.5631      0.00000
     29      36.5007      0.00000
     30      36.5007      0.00000
     31      38.1471      0.00000
     32      38.1471      0.00000
     33      40.1276      0.00000
     34      40.1276      0.00000
     35      41.8800      0.00000
     36      41.8800      0.00000
     37      44.9152      0.00000
     38      44.9152      0.00000
     39      45.9079      0.00000
     40      45.9085      0.00000
     41      48.0608      0.00000
     42      48.0621      0.00000
     43      48.2756      0.00000
     44      48.2782      0.00000
     45      49.5041      0.00000
     46      49.5096      0.00000
     47      51.8692      0.00000
     48      51.8922      0.00000
     49      55.6913      0.00000
     50      55.7205      0.00000
     51      55.7706      0.00000
     52      57.1019      0.00000
     53      57.7687      0.00000
     54      58.6455      0.00000

 spin component 2

 k-point     1 :       0.0000    0.0000    0.0000
  band No.  band energies     occupation 
      1      -8.9523      1.00000
      2       3.9364      1.00002
      3       3.9364      1.00002
      4       3.9364      1.00002
      5       4.1210      0.12839
      6       6.4499      0.00000
      7       6.4499      0.00000
      8       6.4499      0.00000
      9      10.3842      0.00000
     10      13.1998      0.00000
     11      13.1998      0.00000
     12      14.6513      0.00000
     13      14.6513      0.00000
     14      14.6513      0.00000
     15      17.8090      0.00000
     16      28.2831      0.00000
     17      28.2831      0.00000
     18      28.2831      0.00000
     19      29.1128      0.00000
     20      29.1128      0.00000
     21      29.1128      0.00000
     22      29.4814      0.00000
     23      29.4814      0.00000
     24      30.1732      0.00000
     25      30.1732      0.00000
     26      30.1732      0.00000
     27      38.6790      0.00000
     28      39.1268      0.00000
     29      39.1268      0.00000
     30      39.1268      0.00000
     31      41.9585      0.00000
     32      41.9588      0.00000
     33      42.5158      0.00000
     34      42.5166      0.00000
     35      43.4754      0.00000
     36      43.6937      0.00000
     37      43.6940      0.00000
     38      43.6976      0.00000
     39      44.1013      0.00000
     40      44.1019      0.00000
     41      44.1059      0.00000
     42      44.9043      0.00000
     43      44.9053      0.00000
     44      44.9262      0.00000
     45      45.4068      0.00000
     46      45.4092      0.00000
     47      45.4186      0.00000
     48      46.5201      0.00000
     49      46.5270      0.00000
     50      46.5800      0.00000
     51      50.4207      0.00000
     52      51.9588      0.00000
     53      52.0555      0.00000
     54      52.2596      0.00000

 k-point     2 :       0.2500    0.0000    0.0000
  band No.  band energies     occupation 
      1      -8.2020      1.00000
      2      -0.8093      1.00000
      3       3.0281      1.00000
      4       3.0281      1.00000
      5       4.6449     -0.00000
      6       7.5426      0.00000
      7       7.5426      0.00000
      8       9.6459      0.00000
      9      11.9434      0.00000
     10      12.1297      0.00000
     11      12.1297      0.00000
     12      14.8535      0.00000
     13      18.7488      0.00000
     14      18.7488      0.00000
     15      21.7114      0.00000
     16      21.7701      0.00000
     17      21.7701      0.00000
     18      22.5813      0.00000
     19      29.3365      0.00000
     20      29.3365      0.00000
     21      29.9866      0.00000
     22      29.9866      0.00000
     23      30.7926      0.00000
     24      31.8914      0.00000
     25      32.8075      0.00000
     26      33.9281      0.00000
     27      33.9281      0.00000
     28      36.9089      0.00000
     29      36.9089      0.00000
     30      37.2228      0.00000
     31      37.2228      0.00000
     32      39.1169      0.00000
     33      39.4716      0.00000
     34      39.4716      0.00000
     35      39.8742      0.00000
     36      40.3041      0.00000
     37      42.6983      0.00000
     38      42.6986      0.00000
     39      43.5370      0.00000
     40      44.4955      0.00000
     41      44.7503      0.00000
     42      44.7508      0.00000
     43      45.0274      0.00000
     44      48.8276      0.00000
     45      48.8325      0.00000
     46      49.9232      0.00000
     47      50.0349      0.00000
     48      51.0465      0.00000
     49      51.0688      0.00000
     50      51.1020      0.00000
     51      52.5488      0.00000
     52      53.7500      0.00000
     53      56.9854      0.00000
     54      57.3794      0.00000

 k-point     3 :       0.5000    0.0000    0.0000
  band No.  band energies     occupation 
      1      -6.8351      1.00000
      2      -3.7432      1.00000
      3       2.4958      1.00000
      4       2.4958      1.00000
      5       4.1527     -0.03210
      6       7.6342      0.00000
      7       7.6342      0.00000
      8      11.0265      0.00000
      9      14.5607      0.00000
     10      15.0976      0.00000
     11      15.0976      0.00000
     12      15.1909      0.00000
     13      16.0710      0.00000
     14      16.0710      0.00000
     15      22.7084      0.00000
     16      23.8918      0.00000
     17      25.3668      0.00000
     18      25.3668      0.00000
     19      25.5000      0.00000
     20      25.5000      0.00000
     21      28.8468      0.00000
     22      30.0308      0.00000
     23      30.2837      0.00000
     24      30.2837      0.00000
     25      31.0129      0.00000
     26      31.0129      0.00000
     27      31.6987      0.00000
     28      35.2061      0.00000
     29      35.2061      0.00000
     30      35.3329      0.00000
     31      35.3329      0.00000
     32      36.1537      0.00000
     33      37.2506      0.00000
     34      37.4328      0.00000
     35      42.5203      0.00000
     36      42.5203      0.00000
     37      42.7949      0.00000
     38      43.7775      0.00000
     39      43.7775      0.00000
     40      44.7337      0.00000
     41      48.1149      0.00000
     42      48.1163      0.00000
     43      49.4683      0.00000
     44      49.4728      0.00000
     45      50.2773      0.00000
     46      52.4629      0.00000
     47      52.9051      0.00000
     48      52.9662      0.00000
     49      54.3502      0.00000
     50      54.3668      0.00000
     51      55.3968      0.00000
     52      56.1559      0.00000
     53      56.5082      0.00000
     54      58.4865      0.00000

 k-point     4 :       0.2500    0.2500    0.0000
  band No.  band energies     occupation 
      1      -7.9308      1.00000
      2      -0.7726      1.00000
      3       1.8433      1.00000
      4       1.8433      1.00000
      5       4.9051     -0.00000
      6       6.6914      0.00000
      7       9.7855      0.00000
      8       9.7855      0.00000
      9      11.0506      0.00000
     10      14.1438      0.00000
     11      14.2351      0.00000
     12      16.7508      0.00000
     13      16.7508      0.00000
     14      17.4492      0.00000
     15      21.3785      0.00000
     16      21.3785      0.00000
     17      22.5765      0.00000
     18      23.4817      0.00000
     19      24.4350      0.00000
     20      29.2927      0.00000
     21      30.5613      0.00000
     22      30.5613      0.00000
     23      30.8207      0.00000
     24      31.8786      0.00000
     25      31.8786      0.00000
     26      32.8677      0.00000
     27      33.3698      0.00000
     28      36.7569      0.00000
     29      37.8469      0.00000
     30      37.9128      0.00000
     31      37.9128      0.00000
     32      38.8218      0.00000
     33      38.8218      0.00000
     34      39.8789      0.00000
     35      41.2236      0.00000
     36      41.2236      0.00000
     37      41.7352      0.00000
     38      41.8779      0.00000
     39      42.6753      0.00000
     40      44.8034      0.00000
     41      45.1072      0.00000
     42      45.1073      0.00000
     43      46.7799      0.00000
     44      49.0146      0.00000
     45      49.0234      0.00000
     46      49.2430      0.00000
     47      49.5636      0.00000
     48      50.6856      0.00000
     49      50.7054      0.00000
     50      51.0593      0.00000
     51      52.2281      0.00000
     52      52.3993      0.00000
     53      55.7620      0.00000
     54      57.3627      0.00000

 k-point     5 :       0.5000    0.2500    0.0000
  band No.  band energies     occupation 
      1      -6.4202      1.00000
      2      -3.4973      1.00000
      3       0.1268      1.00000
      4       1.4732      1.00000
      5       5.3178     -0.00000
      6       8.1729      0.00000
      7       9.3810      0.00000
      8      10.1327      0.00000
      9      13.9519      0.00000
     10      15.1792      0.00000
     11      15.7712      0.00000
     12      16.2301      0.00000
     13      17.0631      0.00000
     14      20.5937      0.00000
     15      21.6143      0.00000
     16      22.6331      0.00000
     17      23.1578      0.00000
     18      23.3597      0.00000
     19      23.7034      0.00000
     20      25.5724      0.00000
     21      27.6862      0.00000
     22      28.1842      0.00000
     23      28.8808      0.00000
     24      30.4646      0.00000
     25      31.5008      0.00000
     26      31.8278      0.00000
     27      32.1515      0.00000
     28      33.1803      0.00000
     29      34.7730      0.00000
     30      36.4621      0.00000
     31      37.0070      0.00000
     32      38.5454      0.00000
     33      39.2085      0.00000
     34      39.3248      0.00000
     35      39.7949      0.00000
     36      42.5385      0.00000
     37      44.5003      0.00000
     38      45.0642      0.00000
     39      45.7919      0.00000
     40      45.9567      0.00000
     41      46.1877      0.00000
     42      47.2114      0.00000
     43      47.4897      0.00000
     44      49.0417      0.00000
     45      49.7125      0.00000
     46      50.2804      0.00000
     47      51.4794      0.00000
     48      51.8730      0.00000
     49      53.8591      0.00000
     50      54.7958      0.00000
     51      55.7342      0.00000
     52      56.0258      0.00000
     53      57.3234      0.00000
     54      58.7968      0.00000

 k-point     6 :      -0.2500    0.2500    0.0000
  band No.  band energies     occupation 
      1      -7.0442      1.00000
      2      -2.6259      1.00000
      3      -0.0210      1.00000
      4       2.3916      1.00000
      5       5.9019      0.00000
      6       8.7100      0.00000
      7       9.0829      0.00000
      8       9.2575      0.00000
      9      11.4847      0.00000
     10      13.4043      0.00000
     11      15.8749      0.00000
     12      16.4958      0.00000
     13      17.5868      0.00000
     14      20.2091      0.00000
     15      21.6889      0.00000
     16      22.4423      0.00000
     17      22.6288      0.00000
     18      24.5868      0.00000
     19      25.1802      0.00000
     20      27.0790      0.00000
     21      27.7077      0.00000
     22      28.6918      0.00000
     23      29.5426      0.00000
     24      29.5556      0.00000
     25      31.2784      0.00000
     26      31.5051      0.00000
     27      33.2853      0.00000
     28      33.4941      0.00000
     29      37.3537      0.00000
     30      37.7602      0.00000
     31      37.9626      0.00000
     32      38.2489      0.00000
     33      39.0278      0.00000
     34      39.3866      0.00000
     35      39.4657      0.00000
     36      39.7325      0.00000
     37      39.8954      0.00000
     38      43.9514      0.00000
     39      45.1857      0.00000
     40      46.4844      0.00000
     41      46.9382      0.00000
     42      47.0484      0.00000
     43      49.3916      0.00000
     44      50.1131      0.00000
     45      50.8907      0.00000
     46      51.3755      0.00000
     47      51.4312      0.00000
     48      52.2382      0.00000
     49      52.5796      0.00000
     50      53.6272      0.00000
     51      53.9959      0.00000
     52      56.1845      0.00000
     53      56.7934      0.00000
     54      57.9310      0.00000

 k-point     7 :       0.5000    0.5000    0.0000
  band No.  band energies     occupation 
      1      -5.0154      1.00000
      2      -5.0154      1.00000
      3       0.7880      1.00000
      4       0.7880      1.00000
      5       4.6348     -0.00000
      6       4.6348     -0.00000
      7      13.5102      0.00000
      8      13.5102      0.00000
      9      15.6683      0.00000
     10      15.6683      0.00000
     11      16.4924      0.00000
     12      16.4924      0.00000
     13      17.3553      0.00000
     14      17.3553      0.00000
     15      22.8983      0.00000
     16      22.8983      0.00000
     17      22.9074      0.00000
     18      22.9074      0.00000
     19      22.9284      0.00000
     20      22.9284      0.00000
     21      23.6072      0.00000
     22      23.6072      0.00000
     23      30.8555      0.00000
     24      30.8555      0.00000
     25      32.2957      0.00000
     26      32.2957      0.00000
     27      35.7559      0.00000
     28      35.7559      0.00000
     29      36.4768      0.00000
     30      36.4768      0.00000
     31      38.5674      0.00000
     32      38.5674      0.00000
     33      38.7870      0.00000
     34      38.7870      0.00000
     35      40.1036      0.00000
     36      40.1036      0.00000
     37      42.5420      0.00000
     38      42.5421      0.00000
     39      42.9450      0.00000
     40      42.9450      0.00000
     41      47.0087      0.00000
     42      47.0098      0.00000
     43      49.8619      0.00000
     44      49.8687      0.00000
     45      50.3235      0.00000
     46      50.3436      0.00000
     47      55.3134      0.00000
     48      55.4977      0.00000
     49      56.2217      0.00000
     50      56.8487      0.00000
     51      57.0290      0.00000
     52      57.4524      0.00000
     53      57.9763      0.00000
     54      58.3179      0.00000

 k-point     8 :      -0.2500    0.5000    0.2500
  band No.  band energies     occupation 
      1      -4.9127      1.00000
      2      -4.9127      1.00000
      3      -0.0661      1.00000
      4      -0.0661      1.00000
      5       8.2852      0.00000
      6       8.2852      0.00000
      7       8.6202      0.00000
      8       8.6202      0.00000
      9      14.9453      0.00000
     10      14.9453      0.00000
     11      16.8221      0.00000
     12      16.8221      0.00000
     13      20.2231      0.00000
     14      20.2231      0.00000
     15      21.0785      0.00000
     16      21.0785      0.00000
     17      23.3846      0.00000
     18      23.3846      0.00000
     19      24.6284      0.00000
     20      24.6284      0.00000
     21      27.0922      0.00000
     22      27.0922      0.00000
     23      29.7686      0.00000
     24      29.7686      0.00000
     25      29.9036      0.00000
     26      29.9036      0.00000
     27      30.5630      0.00000
     28      30.5630      0.00000
     29      36.5007      0.00000
     30      36.5007      0.00000
     31      38.1471      0.00000
     32      38.1471      0.00000
     33      40.1276      0.00000
     34      40.1276      0.00000
     35      41.8800      0.00000
     36      41.8800      0.00000
     37      44.9152      0.00000
     38      44.9152      0.00000
     39      45.9080      0.00000
     40      45.9081      0.00000
     41      48.0606      0.00000
     42      48.0608      0.00000
     43      48.2757      0.00000
     44      48.2761      0.00000
     45      49.5035      0.00000
     46      49.5049      0.00000
     47      51.8679      0.00000
     48      51.8907      0.00000
     49      55.7161      0.00000
     50      55.8395      0.00000
     51      55.9021      0.00000
     52      56.1851      0.00000
     53      57.3791      0.00000
     54      58.6300      0.00000


--------------------------------------------------------------------------------------------------------


 soft charge-density along one line, spin component           1
         0         1         2         3         4         5         6         7         8         9
 total charge-density along one line
 
 soft charge-density along one line, spin component           2
         0         1         2         3         4         5         6         7         8         9
 total charge-density along one line
 
 pseudopotential strength for first ion, spin component:           1
 14.458   0.000  18.037   0.000   0.000   0.000   0.000   0.000   0.000   0.000   0.000   0.000   0.000   0.000   0.000   0.000
 18.037   0.000  22.518   0.000   0.000   0.000   0.000   0.000   0.000   0.000   0.000   0.000   0.000   0.000   0.000   0.000
  0.000   0.000   0.000   0.000   3.224   0.000   0.000   0.000   0.000   0.000   5.491   0.000   0.000   0.000   0.000   0.000
  0.000   0.000   0.000   0.000   0.000   0.000   3.224   0.000   0.000   0.000   0.000   0.000   5.491   0.000   0.000   0.000
  0.000   0.000   0.000   0.000   0.000   0.000   0.000   0.000   3.224   0.000   0.000   0.000   0.000   0.000   5.491   0.000
  0.000   0.000   0.000   0.000   5.491   0.000   0.000   0.000   0.000   0.000   9.412   0.000   0.000   0.000   0.000   0.000
  0.000   0.000   0.000   0.000   0.000   0.000   5.491   0.000   0.000   0.000   0.000   0.000   9.412   0.000   0.000   0.000
  0.000   0.000   0.000   0.000   0.000   0.000   0.000   0.000   5.491   0.000   0.000   0.000   0.000   0.000   9.412   0.000
  0.000   0.000   0.000   0.000   0.000   0.000   0.003   0.000   0.000   0.000   0.000   0.000   0.004   0.000   0.000   0.000
  0.000   0.000   0.000   0.000   0.000   0.000   0.000   0.000   0.003   0.000   0.000   0.000   0.000   0.000   0.004   0.000
 -0.000   0.000  -0.000   0.000   0.000   0.000  -0.000   0.000   0.000   0.000   0.000   0.000  -0.000   0.000   0.000   0.000
  0.000   0.000   0.000   0.000   0.003   0.000   0.000   0.000   0.000   0.000   0.004   0.000   0.000   0.000   0.000   0.000
 -0.000   0.000  -0.000   0.000   0.000   0.000   0.000   0.000  -0.000   0.000   0.000   0.000   0.000   0.000  -0.000   0.000
 pseudopotential strength for first ion, spin component:           2
 14.458   0.000  18.037   0.000   0.000   0.000   0.000   0.000   0.000   0.000   0.000   0.000   0.000   0.000   0.000   0.000
 18.037   0.000  22.518   0.000   0.000   0.000   0.000   0.000   0.000   0.000   0.000   0.000   0.000   0.000   0.000   0.000
  0.000   0.000   0.000   0.000   3.224   0.000   0.000   0.000   0.000   0.000   5.491   0.000   0.000   0.000   0.000   0.000
  0.000   0.000   0.000   0.000   0.000   0.000   3.224   0.000   0.000   0.000   0.000   0.000   5.491   0.000   0.000   0.000
  0.000   0.000   0.000   0.000   0.000   0.000   0.000   0.000   3.224   0.000   0.000   0.000   0.000   0.000   5.491   0.000
  0.000   0.000   0.000   0.000   5.491   0.000   0.000   0.000   0.000   0.000   9.412   0.000   0.000   0.000   0.000   0.000
  0.000   0.000   0.000   0.000   0.000   0.000   5.491   0.000   0.000   0.000   0.000   0.000   9.412   0.000   0.000   0.000
  0.000   0.000   0.000   0.000   0.000   0.000   0.000   0.000   5.491   0.000   0.000   0.000   0.000   0.000   9.412   0.000
  0.000   0.000   0.000   0.000   0.000   0.000   0.003   0.000   0.000   0.000   0.000   0.000   0.004   0.000   0.000   0.000
  0.000   0.000   0.000   0.000   0.000   0.000   0.000   0.000   0.003   0.000   0.000   0.000   0.000   0.000   0.004   0.000
 -0.000   0.000  -0.000   0.000   0.000   0.000  -0.000   0.000   0.000   0.000   0.000   0.000  -0.000   0.000   0.000   0.000
  0.000   0.000   0.000   0.000   0.003   0.000   0.000   0.000   0.000   0.000   0.004   0.000   0.000   0.000   0.000   0.000
 -0.000   0.000  -0.000   0.000   0.000   0.000   0.000   0.000  -0.000   0.000   0.000   0.000   0.000   0.000  -0.000   0.000
 total augmentation occupancy for first ion, spin component:           1
  3.753  -1.159   0.000  -0.000  -0.000  -0.000   0.000   0.000   0.000   0.000   0.000   0.000   0.000
 -1.159   0.480   0.000   0.000   0.000   0.000   0.000   0.000   0.000   0.000   0.000   0.000   0.000
  0.000   0.000   2.125  -0.000  -0.000  -0.360   0.000   0.000   0.000   0.000   0.000   0.194   0.000
  0.000  -0.000  -0.000   2.125  -0.000  -0.000  -0.360   0.000   0.194   0.000  -0.000  -0.000   0.000
  0.000  -0.000   0.000  -0.000   2.125   0.000  -0.000  -0.360   0.000   0.194  -0.000   0.000  -0.000
  0.000   0.000  -0.360   0.000   0.000   0.069   0.000   0.000   0.000   0.000   0.000  -0.033  -0.000
 -0.000   0.000   0.000  -0.360  -0.000   0.000   0.069   0.000  -0.033   0.000   0.000   0.000   0.000
 -0.000   0.000   0.000  -0.000  -0.360   0.000   0.000   0.069   0.000  -0.033   0.000   0.000   0.000
  0.000  -0.000   0.000   0.194   0.000   0.000  -0.033   0.000   0.030   0.000  -0.000   0.000   0.000
  0.000   0.000   0.000  -0.000   0.194   0.000   0.000  -0.033   0.000   0.030  -0.000   0.000  -0.000
  0.000   0.000   0.000  -0.000   0.000   0.000   0.000   0.000  -0.000  -0.000   0.008  -0.000   0.000
 -0.000  -0.000   0.194  -0.000  -0.000  -0.033   0.000  -0.000   0.000   0.000   0.000   0.030   0.000
  0.000   0.000   0.000   0.000  -0.000  -0.000  -0.000   0.000   0.000  -0.000   0.000   0.000   0.008
 total augmentation occupancy for first ion, spin component:           2
 -0.000   0.000  -0.000   0.000   0.000   0.000  -0.000  -0.000   0.000  -0.000  -0.000   0.000  -0.000
  0.000  -0.000  -0.000  -0.000   0.000   0.000   0.000  -0.000   0.000   0.000  -0.000  -0.000   0.000
 -0.000  -0.000  -0.000  -0.000   0.000   0.000   0.000   0.000   0.000   0.000  -0.000   0.000   0.000
  0.000  -0.000  -0.000  -0.000   0.000   0.000   0.000   0.000   0.000   0.000   0.000   0.000   0.000
  0.000   0.000   0.000   0.000  -0.000  -0.000   0.000   0.000   0.000   0.000  -0.000  -0.000  -0.000
  0.000   0.000   0.000   0.000  -0.000  -0.000   0.000   0.000  -0.000  -0.000   0.000  -0.000  -0.000
 -0.000   0.000   0.000   0.000   0.000   0.000  -0.000   0.000  -0.000  -0.000  -0.000  -0.000  -0.000
 -0.000  -0.000   0.000   0.000   0.000   0.000   0.000  -0.000  -0.000  -0.000  -0.000   0.000  -0.000
  0.000   0.000   0.000   0.000   0.000  -0.000  -0.000  -0.000   0.000   0.000   0.000   0.000   0.000
 -0.000   0.000   0.000   0.000   0.000  -0.000  -0.000  -0.000   0.000   0.000   0.000  -0.000   0.000
 -0.000  -0.000  -0.000   0.000   0.000  -0.000  -0.000  -0.000  -0.000   0.000   0.000  -0.000   0.000
  0.000  -0.000   0.000   0.000  -0.000  -0.000  -0.000   0.000   0.000  -0.000  -0.000   0.000   0.000
 -0.000   0.000   0.000   0.000   0.000   0.000  -0.000   0.000   0.000   0.000   0.000   0.000   0.000


------------------------ aborting loop because EDIFF is reached ----------------------------------------


    FORLOC:  cpu time    0.0013: real time    0.0013
    FORNL :  cpu time    0.0233: real time    0.0233
    STRESS:  cpu time    0.0656: real time    0.0657
    FORCOR:  cpu time    0.0317: real time    0.0317
    OFIELD:  cpu time    0.0002: real time    0.0002

  FORCE on cell =-STRESS in cart. coord.  units (eV):
  Direction    XX          YY          ZZ          XY          YZ          ZX
  --------------------------------------------------------------------------------------
  Alpha Z    17.10940    17.10940    17.10940
  Ewald     -73.44225   -73.44225   -73.44225     0.00000     0.00000     0.00000
  Hartree     5.26261     5.26261     5.26261     0.00000     0.00000     0.00000
  E(xc)     -27.91804   -27.91804   -27.91804     0.00000     0.00000     0.00000
  Local     -23.50119   -23.50119   -23.50119     0.00000     0.00000     0.00000
  n-local    41.17387    41.35101    38.16565     1.45635    -0.50270     0.50258
  augment     2.36110     2.36110     2.36110    -0.00000    -0.00000    -0.00000
  Kinetic    63.84951    63.29446    57.35184     5.06054    -1.44594     1.44597
  Fock        0.00000     0.00000     0.00000     0.00000     0.00000     0.00000
  -------------------------------------------------------------------------------------
  Total       1.60042     1.60042     1.60042    -0.00000    -0.00000    -0.00000
  in kB      57.38343    57.38343    57.38343    -0.00000    -0.00000    -0.00000
  external pressure =       57.38 kB  Pullay stress =        0.00 kB


 VOLUME and BASIS-vectors are now :
 -----------------------------------------------------------------------------
  energy-cutoff  :      450.00
  volume of cell :       44.68
      direct lattice vectors                 reciprocal lattice vectors
     0.000000000  2.816500000  2.816500000    -0.177525297  0.177525297  0.177525297
     2.816500000  0.000000000  2.816500000     0.177525297 -0.177525297  0.177525297
     2.816500000  2.816500000  0.000000000     0.177525297  0.177525297 -0.177525297

  length of vectors
     3.983132498  3.983132498  3.983132498     0.307482835  0.307482835  0.307482835


 FORCES acting on ions:
    Electron-Ion                     Ewald-Force                    Non-Local-Force
 -----------------------------------------------------------------------------------------------
   -.134E-06 -.134E-06 -.134E-06   0.204E-14 0.421E-14 0.352E-14   -.104E-16 -.208E-16 -.217E-16
   0.134E-06 0.134E-06 0.134E-06   -.214E-14 -.407E-14 -.341E-14   0.000E+00 0.139E-16 0.199E-16
 -----------------------------------------------------------------------------------------------
   -.355E-13 0.455E-14 0.207E-14   -.101E-15 0.144E-15 0.110E-15   -.104E-16 -.694E-17 -.173E-17
 
 
 POSITION                                       TOTAL-FORCE (eV/Angst)
 -----------------------------------------------------------------------------------
      0.00000      0.00000      0.00000        -0.000000     -0.000000     -0.000000
      1.40825      1.40825      1.40825         0.000000      0.000000      0.000000
 -----------------------------------------------------------------------------------
    total drift:                               -0.000000      0.000000      0.000000


--------------------------------------------------------------------------------------------------------



  FREE ENERGIE OF THE ION-ELECTRON SYSTEM (eV)
  ---------------------------------------------------
  free  energy   TOTEN  =        -8.66229501 eV

  energy  without entropy=       -8.66258042  energy(sigma->0) =       -8.66239015
 


--------------------------------------------------------------------------------------------------------


    POTLOK:  cpu time    0.0427: real time    0.0427


--------------------------------------------------------------------------------------------------------


 writing wavefunctions
     LOOP+:  cpu time    2.7669: real time    2.9109
    4ORBIT:  cpu time    0.0000: real time    0.0000

 total amount of memory used by VASP MPI-rank0    38225. kBytes
=======================================================================

   base      :      30000. kBytes
   nonl-proj :        287. kBytes
   fftplans  :       1049. kBytes
   grid      :       2064. kBytes
   one-center:         16. kBytes
   wavefun   :       4809. kBytes
 
  
  
 General timing and accounting informations for this job:
 ========================================================
  
                  Total CPU time used (sec):        4.741
                            User time (sec):        4.409
                          System time (sec):        0.332
                         Elapsed time (sec):        5.402
  
                   Maximum memory used (kb):      152236.
                   Average memory used (kb):           0.
  
                          Minor page faults:        24019
                          Major page faults:            0
                 Voluntary context switches:         1374
