 vasp.5.4.4.18Apr17-6-g9f103f2a35 (build Nov 08 2017 12:56:59) complex          
  
 executed on             LinuxIFC date 2020.06.23  09:52:01
 running on   56 total cores
 distrk:  each k-point on   56 cores,    1 groups
 distr:  one band on NCORES_PER_BAND=   1 cores,   56 groups


--------------------------------------------------------------------------------------------------------


 INCAR:
 POTCAR:    PAW_PBE Ge 05Jan2001                  

 ----------------------------------------------------------------------------- 
|                                                                             |
|           W    W    AA    RRRRR   N    N  II  N    N   GGGG   !!!           |
|           W    W   A  A   R    R  NN   N  II  NN   N  G    G  !!!           |
|           W    W  A    A  R    R  N N  N  II  N N  N  G       !!!           |
|           W WW W  AAAAAA  RRRRR   N  N N  II  N  N N  G  GGG   !            |
|           WW  WW  A    A  R   R   N   NN  II  N   NN  G    G                |
|           W    W  A    A  R    R  N    N  II  N    N   GGGG   !!!           |
|                                                                             |
|      For optimal performance we recommend to set                            |
|        NCORE= 4 - approx SQRT( number of cores)                             |
|      NCORE specifies how many cores store one orbital (NPAR=cpu/NCORE).     |
|      This setting can  greatly improve the performance of VASP for DFT.     |
|      The default,   NCORE=1            might be grossly inefficient         |
|      on modern multi-core architectures or massively parallel machines.     |
|      Do your own testing !!!!                                               |
|      Unfortunately you need to use the default for GW and RPA calculations. |
|      (for HF NCORE is supported but not extensively tested yet)             |
|                                                                             |
 ----------------------------------------------------------------------------- 

 POTCAR:    PAW_PBE Ge 05Jan2001                  
   VRHFIN =Ge: s2p2                                                             
   LEXCH  = PE                                                                  
   EATOM  =   104.9960 eV,    7.7170 Ry                                         
                                                                                
   TITEL  = PAW_PBE Ge 05Jan2001                                                
   LULTRA =        F    use ultrasoft PP ?                                      
   IUNSCR =        1    unscreen: 0-lin 1-nonlin 2-no                           
   RPACOR =    2.170    partial core radius                                     
   POMASS =   72.610; ZVAL   =    4.000    mass and valenz                      
   RCORE  =    2.300    outmost cutoff radius                                   
   RWIGS  =    2.300; RWIGS  =    1.217    wigner-seitz radius (au A)           
   ENMAX  =  173.807; ENMIN  =  130.355 eV                                      
   ICORE  =        3    local potential                                         
   LCOR   =        T    correct aug charges                                     
   LPAW   =        T    paw PP                                                  
   EAUG   =  385.843                                                            
   DEXC   =    0.000                                                            
   RMAX   =    2.342    core radius for proj-oper                               
   RAUG   =    1.300    factor for augmentation sphere                          
   RDEP   =    2.318    radius for radial grids                                 
   RDEPT  =    2.103    core radius for aug-charge                              
                                                                                
   Atomic configuration                                                         
   10 entries                                                                   
     n  l   j            E        occ.                                          
     1  0  0.50    -10959.8463   2.0000                                         
     2  0  0.50     -1371.6056   2.0000                                         
     2  1  1.50     -1198.4791   6.0000                                         
     3  0  0.50      -168.4733   2.0000                                         
     3  1  1.50      -115.6019   6.0000                                         
     3  2  2.50       -29.3106  10.0000                                         
     4  0  0.50       -11.7309   2.0000                                         
     4  1  0.50        -3.8952   2.0000                                         
     4  2  1.50        -4.0817   0.0000                                         
     4  3  2.50        -4.0817   0.0000                                         
   Description                                                                  
     l       E           TYP  RCUT    TYP  RCUT                                 
     0    -11.7309493     23  2.300                                             
     0     -7.4578696     23  2.300                                             
     1     -3.8952261     23  2.300                                             
     1      6.1178114     23  2.300                                             
     2     -4.0817478     23  2.300                                             
     3     -1.3605826      7  2.300                                             
  local pseudopotential read in
  partial core-charges read in
  partial kinetic energy density read in
  atomic valenz-charges read in
  non local Contribution for L=           0  read in
    real space projection operators read in
  non local Contribution for L=           0  read in
    real space projection operators read in
  non local Contribution for L=           1  read in
    real space projection operators read in
  non local Contribution for L=           1  read in
    real space projection operators read in
  non local Contribution for L=           2  read in
    real space projection operators read in
    PAW grid and wavefunctions read in
 
   number of l-projection  operators is LMAX  =           5
   number of lm-projection operators is LMMAX =          13
 
  PAW_PBE Ge 05Jan2001                  :
 energy of atom  1       EATOM= -104.9960
 kinetic energy error for atom=    0.0003 (will be added to EATOM!!)
 
 
 POSCAR: Ge                                      
  positions in direct lattice
  No initial velocities read in
 exchange correlation table for  LEXCH =        8
   RHO(1)=    0.500       N(1)  =     2000
   RHO(2)=  100.500       N(2)  =     4000
 


--------------------------------------------------------------------------------------------------------


 ion  position               nearest neighbor table
   1  0.000  0.000  0.000-   2 2.44   2 2.44   2 2.44   2 2.44
   2  0.250  0.250  0.250-   1 2.44   1 2.44   1 2.44   1 2.44
 
  LATTYP: Found a face centered cubic cell.
 ALAT       =     5.6330000000
  
  Lattice vectors:
  
 A1 = (   0.0000000000,   2.8165000000,   2.8165000000)
 A2 = (   2.8165000000,   0.0000000000,   2.8165000000)
 A3 = (   2.8165000000,   2.8165000000,   0.0000000000)


Analysis of symmetry for initial positions (statically):
=====================================================================
 Subroutine PRICEL returns:
 Original cell was already a primitive cell.
 

 Routine SETGRP: Setting up the symmetry group for a 
 face centered cubic supercell.


 Subroutine GETGRP returns: Found 48 space group operations
 (whereof 24 operations were pure point group operations)
 out of a pool of 48 trial point group operations.


The static configuration has the point symmetry T_d .
 The point group associated with its full space group is O_h .


Analysis of symmetry for dynamics (positions and initial velocities):
=====================================================================
 Subroutine PRICEL returns:
 Original cell was already a primitive cell.
 

 Routine SETGRP: Setting up the symmetry group for a 
 face centered cubic supercell.


 Subroutine GETGRP returns: Found 48 space group operations
 (whereof 24 operations were pure point group operations)
 out of a pool of 48 trial point group operations.


The dynamic configuration has the point symmetry T_d .
 The point group associated with its full space group is O_h .


 Subroutine INISYM returns: Found 48 space group operations
 (whereof 24 operations are pure point group operations),
 and found     1 'primitive' translations

 
 
 KPOINTS: KPOINTS created by Atomic Simulation Env

Automatic generation of k-mesh.
Space group operators:
 irot       det(A)        alpha          n_x          n_y          n_z        tau_x        tau_y        tau_z
    1     1.000000     0.000000     1.000000     0.000000     0.000000     0.000000     0.000000     0.000000
    2     1.000000   120.000000    -0.577350    -0.577350    -0.577350     0.000000     0.000000     0.000000
    3     1.000000   120.000000     0.577350     0.577350     0.577350     0.000000     0.000000     0.000000
    4    -1.000000    90.000000     0.000000     0.000000    -1.000000     0.000000     0.000000     0.000000
    5    -1.000000   180.000000     0.000000     0.707107     0.707107     0.000000     0.000000     0.000000
    6    -1.000000    90.000000     0.000000     1.000000     0.000000     0.000000     0.000000     0.000000
    7     1.000000   180.000000     0.000000     0.000000     1.000000     0.000000     0.000000     0.000000
    8     1.000000   120.000000    -0.577350     0.577350     0.577350     0.000000     0.000000     0.000000
    9     1.000000   120.000000    -0.577350     0.577350    -0.577350     0.000000     0.000000     0.000000
   10    -1.000000    90.000000     0.000000     0.000000     1.000000     0.000000     0.000000     0.000000
   11    -1.000000    90.000000    -1.000000     0.000000     0.000000     0.000000     0.000000     0.000000
   12    -1.000000   180.000000     0.707107     0.000000     0.707107     0.000000     0.000000     0.000000
   13     1.000000   120.000000     0.577350    -0.577350     0.577350     0.000000     0.000000     0.000000
   14     1.000000   120.000000    -0.577350    -0.577350     0.577350     0.000000     0.000000     0.000000
   15     1.000000   180.000000     1.000000     0.000000     0.000000     0.000000     0.000000     0.000000
   16    -1.000000    90.000000     0.000000    -1.000000     0.000000     0.000000     0.000000     0.000000
   17    -1.000000   180.000000     0.707107     0.707107     0.000000     0.000000     0.000000     0.000000
   18    -1.000000    90.000000     1.000000     0.000000     0.000000     0.000000     0.000000     0.000000
   19     1.000000   120.000000     0.577350    -0.577350    -0.577350     0.000000     0.000000     0.000000
   20     1.000000   180.000000     0.000000     1.000000     0.000000     0.000000     0.000000     0.000000
   21     1.000000   120.000000     0.577350     0.577350    -0.577350     0.000000     0.000000     0.000000
   22    -1.000000   180.000000     0.000000    -0.707107     0.707107     0.000000     0.000000     0.000000
   23    -1.000000   180.000000     0.707107    -0.707107     0.000000     0.000000     0.000000     0.000000
   24    -1.000000   180.000000     0.707107     0.000000    -0.707107     0.000000     0.000000     0.000000
   25    -1.000000     0.000000     1.000000     0.000000     0.000000     0.250000     0.250000     0.250000
   26    -1.000000   120.000000    -0.577350    -0.577350    -0.577350     0.250000     0.250000     0.250000
   27    -1.000000   120.000000     0.577350     0.577350     0.577350     0.250000     0.250000     0.250000
   28     1.000000    90.000000     0.000000     0.000000    -1.000000     0.250000     0.250000     0.250000
   29     1.000000   180.000000     0.000000     0.707107     0.707107     0.250000     0.250000     0.250000
   30     1.000000    90.000000     0.000000     1.000000     0.000000     0.250000     0.250000     0.250000
   31    -1.000000   180.000000     0.000000     0.000000     1.000000     0.250000     0.250000     0.250000
   32    -1.000000   120.000000    -0.577350     0.577350     0.577350     0.250000     0.250000     0.250000
   33    -1.000000   120.000000    -0.577350     0.577350    -0.577350     0.250000     0.250000     0.250000
   34     1.000000    90.000000     0.000000     0.000000     1.000000     0.250000     0.250000     0.250000
   35     1.000000    90.000000    -1.000000     0.000000     0.000000     0.250000     0.250000     0.250000
   36     1.000000   180.000000     0.707107     0.000000     0.707107     0.250000     0.250000     0.250000
   37    -1.000000   120.000000     0.577350    -0.577350     0.577350     0.250000     0.250000     0.250000
   38    -1.000000   120.000000    -0.577350    -0.577350     0.577350     0.250000     0.250000     0.250000
   39    -1.000000   180.000000     1.000000     0.000000     0.000000     0.250000     0.250000     0.250000
   40     1.000000    90.000000     0.000000    -1.000000     0.000000     0.250000     0.250000     0.250000
   41     1.000000   180.000000     0.707107     0.707107     0.000000     0.250000     0.250000     0.250000
   42     1.000000    90.000000     1.000000     0.000000     0.000000     0.250000     0.250000     0.250000
   43    -1.000000   120.000000     0.577350    -0.577350    -0.577350     0.250000     0.250000     0.250000
   44    -1.000000   180.000000     0.000000     1.000000     0.000000     0.250000     0.250000     0.250000
   45    -1.000000   120.000000     0.577350     0.577350    -0.577350     0.250000     0.250000     0.250000
   46     1.000000   180.000000     0.000000    -0.707107     0.707107     0.250000     0.250000     0.250000
   47     1.000000   180.000000     0.707107    -0.707107     0.000000     0.250000     0.250000     0.250000
   48     1.000000   180.000000     0.707107     0.000000    -0.707107     0.250000     0.250000     0.250000
 
 Subroutine IBZKPT returns following result:
 ===========================================
 
 Found      8 irreducible k-points:
 
 Following reciprocal coordinates:
            Coordinates               Weight
  0.000000  0.000000  0.000000      1.000000
  0.250000  0.000000  0.000000      8.000000
  0.500000  0.000000  0.000000      4.000000
  0.250000  0.250000  0.000000      6.000000
  0.500000  0.250000  0.000000     24.000000
 -0.250000  0.250000  0.000000     12.000000
  0.500000  0.500000  0.000000      3.000000
 -0.250000  0.500000  0.250000      6.000000
 
 Following cartesian coordinates:
            Coordinates               Weight
  0.000000  0.000000  0.000000      1.000000
 -0.044381  0.044381  0.044381      8.000000
 -0.088763  0.088763  0.088763      4.000000
  0.000000  0.000000  0.088763      6.000000
 -0.044381  0.044381  0.133144     24.000000
  0.088763 -0.088763  0.000000     12.000000
  0.000000  0.000000  0.177525      3.000000
  0.177525 -0.088763  0.000000      6.000000
 


--------------------------------------------------------------------------------------------------------




 Dimension of arrays:
   k-points           NKPTS =      8   k-points in BZ     NKDIM =      8   number of bands    NBANDS=     56
   number of dos      NEDOS =    301   number of ions     NIONS =      2
   non local maximal  LDIM  =      5   non local SUM 2l+1 LMDIM =     13
   total plane-waves  NPLWV =  13824
   max r-space proj   IRMAX =      1   max aug-charges    IRDMAX=  17012
   dimension x,y,z NGX =    24 NGY =   24 NGZ =   24
   dimension x,y,z NGXF=    48 NGYF=   48 NGZF=   48
   support grid    NGXF=    48 NGYF=   48 NGZF=   48
   ions per type =               2
   NGX,Y,Z   is equivalent  to a cutoff of  10.02, 10.02, 10.02 a.u.
   NGXF,Y,Z  is equivalent  to a cutoff of  20.03, 20.03, 20.03 a.u.

 SYSTEM =  unknown system                          
 POSCAR =  Ge                                      

 Startparameter for this run:
   NWRITE =      2    write-flag & timer
   PREC   = n         normal or accurate (medium, high low for compatibility)
   ISTART =      0    job   : 0-new  1-cont  2-samecut
   ICHARG =      2    charge: 1-file 2-atom 10-const
   ISPIN  =      1    spin polarized calculation?
   LNONCOLLINEAR =      F non collinear calculations
   LSORBIT =      F    spin-orbit coupling
   INIWAV =      1    electr: 0-lowe 1-rand  2-diag
   LASPH  =      F    aspherical Exc in radial PAW
   METAGGA=      F    non-selfconsistent MetaGGA calc.

 Electronic Relaxation 1
   ENCUT  =  450.0 eV  33.07 Ry    5.75 a.u.   6.89  6.89  6.89*2*pi/ulx,y,z
   ENINI  =  450.0     initial cutoff
   ENAUG  =  385.8 eV  augmentation charge cutoff
   NELM   =     60;   NELMIN=  2; NELMDL= -5     # of ELM steps 
   EDIFF  = 0.1E-03   stopping-criterion for ELM
   LREAL  =      F    real-space projection
   NLSPLINE    = F    spline interpolate recip. space projectors
   LCOMPAT=      F    compatible to vasp.4.4
   GGA_COMPAT  = T    GGA compatible to vasp.4.4-vasp.4.6
   LMAXPAW     = -100 max onsite density
   LMAXMIX     =    2 max onsite mixed and CHGCAR
   VOSKOWN=      0    Vosko Wilk Nusair interpolation
   ROPT   =    0.00000
 Ionic relaxation
   EDIFFG = 0.1E-02   stopping-criterion for IOM
   NSW    =      0    number of steps for IOM
   NBLOCK =      1;   KBLOCK =      1    inner block; outer block 
   IBRION =     -1    ionic relax: 0-MD 1-quasi-New 2-CG
   NFREE  =      0    steps in history (QN), initial steepest desc. (CG)
   ISIF   =      2    stress and relaxation
   IWAVPR =     10    prediction:  0-non 1-charg 2-wave 3-comb
   ISYM   =      2    0-nonsym 1-usesym 2-fastsym
   LCORR  =      T    Harris-Foulkes like correction to forces

   POTIM  = 0.5000    time-step for ionic-motion
   TEIN   =    0.0    initial temperature
   TEBEG  =    0.0;   TEEND  =   0.0 temperature during run
   SMASS  =  -3.00    Nose mass-parameter (am)
   estimated Nose-frequenzy (Omega)   =  0.10E-29 period in steps =****** mass=  -0.363E-27a.u.
   SCALEE = 1.0000    scale energy and forces
   NPACO  =    256;   APACO  = 16.0  distance and # of slots for P.C.
   PSTRESS=    0.0 pullay stress

  Mass of Ions in am
   POMASS =  72.61
  Ionic Valenz
   ZVAL   =   4.00
  Atomic Wigner-Seitz radii
   RWIGS  =  -1.00
  virtual crystal weights 
   VCA    =   1.00
   NELECT =       8.0000    total number of electrons
   NUPDOWN=      -1.0000    fix difference up-down

 DOS related values:
   EMIN   =  10.00;   EMAX   =-10.00  energy-range for DOS
   EFERMI =   0.00
   ISMEAR =     1;   SIGMA  =   0.05  broadening in eV -4-tet -1-fermi 0-gaus

 Electronic relaxation 2 (details)
   IALGO  =     53    algorithm
   LDIAG  =      T    sub-space diagonalisation (order eigenvalues)
   LSUBROT=      F    optimize rotation matrix (better conditioning)
   TURBO    =      0    0=normal 1=particle mesh
   IRESTART =      0    0=no restart 2=restart with 2 vectors
   NREBOOT  =      0    no. of reboots
   NMIN     =      0    reboot dimension
   EREF     =   0.00    reference energy to select bands
   IMIX   =      4    mixing-type and parameters
     AMIX     =   0.40;   BMIX     =  1.00
     AMIX_MAG =   1.60;   BMIX_MAG =  1.00
     AMIN     =   0.10
     WC   =   100.;   INIMIX=   1;  MIXPRE=   1;  MAXMIX= -45

 Intra band minimization:
   WEIMIN = 0.0000     energy-eigenvalue tresh-hold
   EBREAK =  0.45E-06  absolut break condition
   DEPER  =   0.30     relativ break condition  

   TIME   =   0.40     timestep for ELM

  volume/ion in A,a.u.               =      22.34       150.77
  Fermi-wavevector in a.u.,A,eV,Ry     =   0.922681  1.743615 11.583196  0.851341
  Thomas-Fermi vector in A             =   2.048235
 
 Write flags
   LWAVE        =      T    write WAVECAR
   LDOWNSAMPLE  =      F    k-point downsampling of WAVECAR
   LCHARG       =      T    write CHGCAR
   LVTOT        =      F    write LOCPOT, total local potential
   LVHAR        =      F    write LOCPOT, Hartree potential only
   LELF         =      F    write electronic localiz. function (ELF)
   LORBIT       =      0    0 simple, 1 ext, 2 COOP (PROOUT), +10 PAW based schemes


 Dipole corrections
   LMONO  =      F    monopole corrections only (constant potential shift)
   LDIPOL =      F    correct potential (dipole corrections)
   IDIPOL =      0    1-x, 2-y, 3-z, 4-all directions 
   EPSILON=  1.0000000 bulk dielectric constant

 Exchange correlation treatment:
   GGA     =    PE    GGA type
   LEXCH   =     8    internal setting for exchange type
   VOSKOWN=      0    Vosko Wilk Nusair interpolation
   LHFCALC =     F    Hartree Fock is set to
   LHFONE  =     F    Hartree Fock one center treatment
   AEXX    =    0.0000 exact exchange contribution

 Linear response parameters
   LEPSILON=     F    determine dielectric tensor
   LRPA    =     F    only Hartree local field effects (RPA)
   LNABLA  =     F    use nabla operator in PAW spheres
   LVEL    =     F    velocity operator in full k-point grid
   LINTERFAST=   F  fast interpolation
   KINTER  =     0    interpolate to denser k-point grid
   CSHIFT  =0.1000    complex shift for real part using Kramers Kronig
   OMEGAMAX=  -1.0    maximum frequency
   DEG_THRESHOLD= 0.2000000E-02 threshold for treating states as degnerate
   RTIME   =   -0.100 relaxation time in fs
  (WPLASMAI=    0.000 imaginary part of plasma frequency in eV, 0.658/RTIME)
   DFIELD  = 0.0000000 0.0000000 0.0000000 field for delta impulse in time
 
 Orbital magnetization related:
   ORBITALMAG=     F  switch on orbital magnetization
   LCHIMAG   =     F  perturbation theory with respect to B field
   DQ        =  0.001000  dq finite difference perturbation B field
   LLRAUG    =     F  two centre corrections for induced B field



--------------------------------------------------------------------------------------------------------


 Static calculation
 charge density and potential will be updated during run
 non-spin polarized calculation
 Conjugate gradient for all bands (Freysoldt, et al. PRB 79, 241103 (2009))
 perform sub-space diagonalisation
    before iterative eigenvector-optimisation
 modified Broyden-mixing scheme, WC =      100.0
 initial mixing is a Kerker type mixing with AMIX =  0.4000 and BMIX =      1.0000
 Hartree-type preconditioning will be used
 using additional bands           52
 reciprocal scheme for non local part
 use partial core corrections
 no Harris-corrections to forces 
 use gradient corrections 
 use of overlap-Matrix (Vanderbilt PP)
 Methfessel and Paxton  Order N= 1 SIGMA  =   0.05


--------------------------------------------------------------------------------------------------------


  energy-cutoff  :      450.00
  volume of cell :       44.68
      direct lattice vectors                 reciprocal lattice vectors
     0.000000000  2.816500000  2.816500000    -0.177525297  0.177525297  0.177525297
     2.816500000  0.000000000  2.816500000     0.177525297 -0.177525297  0.177525297
     2.816500000  2.816500000  0.000000000     0.177525297  0.177525297 -0.177525297

  length of vectors
     3.983132498  3.983132498  3.983132498     0.307482835  0.307482835  0.307482835


 
 k-points in units of 2pi/SCALE and weight: KPOINTS created by Atomic Simulation Env
   0.00000000  0.00000000  0.00000000       0.016
  -0.04438132  0.04438132  0.04438132       0.125
  -0.08876265  0.08876265  0.08876265       0.062
   0.00000000  0.00000000  0.08876265       0.094
  -0.04438132  0.04438132  0.13314397       0.375
   0.08876265 -0.08876265  0.00000000       0.188
   0.00000000  0.00000000  0.17752530       0.047
   0.17752530 -0.08876265  0.00000000       0.094
 
 k-points in reciprocal lattice and weights: KPOINTS created by Atomic Simulation Env
   0.00000000  0.00000000  0.00000000       0.016
   0.25000000  0.00000000  0.00000000       0.125
   0.50000000  0.00000000  0.00000000       0.062
   0.25000000  0.25000000  0.00000000       0.094
   0.50000000  0.25000000  0.00000000       0.375
  -0.25000000  0.25000000  0.00000000       0.188
   0.50000000  0.50000000  0.00000000       0.047
  -0.25000000  0.50000000  0.25000000       0.094
 
 position of ions in fractional coordinates (direct lattice) 
   0.00000000  0.00000000  0.00000000
   0.25000000  0.25000000  0.25000000
 
 position of ions in cartesian coordinates  (Angst):
   0.00000000  0.00000000  0.00000000
   1.40825000  1.40825000  1.40825000
 


--------------------------------------------------------------------------------------------------------


 k-point  1 :   0.0000 0.0000 0.0000  plane waves:     941
 k-point  2 :   0.2500 0.0000 0.0000  plane waves:     959
 k-point  3 :   0.5000 0.0000 0.0000  plane waves:     978
 k-point  4 :   0.2500 0.2500 0.0000  plane waves:     982
 k-point  5 :   0.5000 0.2500 0.0000  plane waves:     971
 k-point  6 :  -0.2500 0.2500 0.0000  plane waves:     975
 k-point  7 :   0.5000 0.5000 0.0000  plane waves:     982
 k-point  8 :  -0.2500 0.5000 0.2500  plane waves:     952

 maximum and minimum number of plane-waves per node :       982      941

 maximum number of plane-waves:       982
 maximum index in each direction: 
   IXMAX=    7   IYMAX=    6   IZMAX=    6
   IXMIN=   -7   IYMIN=   -7   IZMIN=   -7


 serial   3D FFT for wavefunctions
 parallel 3D FFT for charge:
    minimum data exchange during FFTs selected (reduces bandwidth)


 total amount of memory used by VASP MPI-rank0    32192. kBytes
=======================================================================

   base      :      30000. kBytes
   nonl-proj :        870. kBytes
   fftplans  :        272. kBytes
   grid      :        626. kBytes
   one-center:         16. kBytes
   wavefun   :        408. kBytes
 
     INWAV:  cpu time    0.0000: real time    0.0002
 Broyden mixing: mesh for mixing (old mesh)
   NGX = 13   NGY = 13   NGZ = 13
  (NGX  = 48   NGY  = 48   NGZ  = 48)
  gives a total of   2197 points

 initial charge density was supplied:
 charge density of overlapping atoms calculated
 number of electron       8.0000000 magnetization 
 keeping initial charge density in first step


--------------------------------------------------------------------------------------------------------


 Maximum index for augmentation-charges          721 (set IRDMAX)


--------------------------------------------------------------------------------------------------------


 First call to EWALD:  gamma=   0.499
 Maximum number of real-space cells 3x 3x 3
 Maximum number of reciprocal cells 3x 3x 3

    FEWALD:  cpu time    0.0019: real time    0.0019


--------------------------------------- Iteration      1(   1)  ---------------------------------------


    POTLOK:  cpu time    0.0051: real time    0.0052
    SETDIJ:  cpu time    0.0039: real time    0.0041
    TRIAL :  cpu time    0.5534: real time    0.5545
    CORREC:  cpu time    0.0002: real time    0.0003
    --------------------------------------------
      LOOP:  cpu time    0.5633: real time    0.5674

 eigenvalue-minimisations  :  1344
 total energy-change (2. order) :-0.1917636E+01  (-0.4919728E+03)
 number of electron       8.0000000 magnetization 
 augmentation part        8.0000000 magnetization 

 Free energy of the ion-electron system (eV)
  ---------------------------------------------------
  alpha Z        PSCENC =        17.10940282
  Ewald energy   TEWEN  =      -220.32663596
  -Hartree energ DENC   =       -12.42928696
  -exchange      EXHF   =         0.00000000
  -V(xc)+E(xc)   XCENC  =       -14.98288157
  PAW double counting   =       176.29039040     -147.31525009
  entropy T*S    EENTRO =        -0.00085826
  eigenvalues    EBANDS =       -10.25396719
  atomic energy  EATOM  =       209.99145059
  ---------------------------------------------------
  free energy    TOTEN  =        -1.91763623 eV

  energy without entropy =       -1.91677797  energy(sigma->0) =       -1.91735014


--------------------------------------------------------------------------------------------------------




--------------------------------------- Iteration      1(   2)  ---------------------------------------


    TRIAL :  cpu time    1.0106: real time    1.0124
    CORREC:  cpu time    0.0001: real time    0.0002
    --------------------------------------------
      LOOP:  cpu time    1.0110: real time    1.0133

 eigenvalue-minimisations  :  1792
 total energy-change (2. order) :-0.6822615E+01  (-0.6802627E+01)
 number of electron       8.0000000 magnetization 
 augmentation part        8.0000000 magnetization 

 Free energy of the ion-electron system (eV)
  ---------------------------------------------------
  alpha Z        PSCENC =        17.10940282
  Ewald energy   TEWEN  =      -220.32663596
  -Hartree energ DENC   =       -12.42928696
  -exchange      EXHF   =         0.00000000
  -V(xc)+E(xc)   XCENC  =       -14.98288157
  PAW double counting   =       176.29039040     -147.31525009
  entropy T*S    EENTRO =         0.00014438
  eigenvalues    EBANDS =       -17.07758453
  atomic energy  EATOM  =       209.99145059
  ---------------------------------------------------
  free energy    TOTEN  =        -8.74025093 eV

  energy without entropy =       -8.74039532  energy(sigma->0) =       -8.74029906


--------------------------------------------------------------------------------------------------------




--------------------------------------- Iteration      1(   3)  ---------------------------------------


    TRIAL :  cpu time    0.6607: real time    0.6611
    CORREC:  cpu time    0.0001: real time    0.0001
    --------------------------------------------
      LOOP:  cpu time    0.6622: real time    0.6636

 eigenvalue-minimisations  :  1456
 total energy-change (2. order) :-0.3496799E-01  (-0.3496667E-01)
 number of electron       8.0000000 magnetization 
 augmentation part        8.0000000 magnetization 

 Free energy of the ion-electron system (eV)
  ---------------------------------------------------
  alpha Z        PSCENC =        17.10940282
  Ewald energy   TEWEN  =      -220.32663596
  -Hartree energ DENC   =       -12.42928696
  -exchange      EXHF   =         0.00000000
  -V(xc)+E(xc)   XCENC  =       -14.98288157
  PAW double counting   =       176.29039040     -147.31525009
  entropy T*S    EENTRO =         0.00014346
  eigenvalues    EBANDS =       -17.11255161
  atomic energy  EATOM  =       209.99145059
  ---------------------------------------------------
  free energy    TOTEN  =        -8.77521893 eV

  energy without entropy =       -8.77536239  energy(sigma->0) =       -8.77526675


--------------------------------------------------------------------------------------------------------




--------------------------------------- Iteration      1(   4)  ---------------------------------------


    TRIAL :  cpu time    1.0089: real time    1.0098
    CORREC:  cpu time    0.0001: real time    0.0001
    --------------------------------------------
      LOOP:  cpu time    1.0092: real time    1.0101

 eigenvalue-minimisations  :  1792
 total energy-change (2. order) :-0.3010931E-03  (-0.3010926E-03)
 number of electron       8.0000000 magnetization 
 augmentation part        8.0000000 magnetization 

 Free energy of the ion-electron system (eV)
  ---------------------------------------------------
  alpha Z        PSCENC =        17.10940282
  Ewald energy   TEWEN  =      -220.32663596
  -Hartree energ DENC   =       -12.42928696
  -exchange      EXHF   =         0.00000000
  -V(xc)+E(xc)   XCENC  =       -14.98288157
  PAW double counting   =       176.29039040     -147.31525009
  entropy T*S    EENTRO =         0.00014348
  eigenvalues    EBANDS =       -17.11285272
  atomic energy  EATOM  =       209.99145059
  ---------------------------------------------------
  free energy    TOTEN  =        -8.77552002 eV

  energy without entropy =       -8.77566350  energy(sigma->0) =       -8.77556785


--------------------------------------------------------------------------------------------------------




--------------------------------------- Iteration      1(   5)  ---------------------------------------


    TRIAL :  cpu time    0.6671: real time    0.6685
    CORREC:  cpu time    0.0002: real time    0.0001
    CHARGE:  cpu time    0.0098: real time    0.0099
    --------------------------------------------
      LOOP:  cpu time    0.6782: real time    0.6797

 eigenvalue-minimisations  :  1456
 total energy-change (2. order) :-0.9024206E-04  (-0.6052838E-06)
 number of electron       7.9999998 magnetization 
 augmentation part       -1.2914059 magnetization 

 Free energy of the ion-electron system (eV)
  ---------------------------------------------------
  alpha Z        PSCENC =        17.10940282
  Ewald energy   TEWEN  =      -220.32663596
  -Hartree energ DENC   =       -12.42928696
  -exchange      EXHF   =         0.00000000
  -V(xc)+E(xc)   XCENC  =       -14.98288157
  PAW double counting   =       176.29039040     -147.31525009
  entropy T*S    EENTRO =         0.00007001
  eigenvalues    EBANDS =       -17.11286950
  atomic energy  EATOM  =       209.99145059
  ---------------------------------------------------
  free energy    TOTEN  =        -8.77561026 eV

  energy without entropy =       -8.77568028  energy(sigma->0) =       -8.77563360


--------------------------------------------------------------------------------------------------------




--------------------------------------- Iteration      1(   6)  ---------------------------------------


    POTLOK:  cpu time    0.0053: real time    0.0056
    SETDIJ:  cpu time    0.0032: real time    0.0032
    TRIAL :  cpu time    0.0885: real time    0.0910
    CORREC:  cpu time    0.0001: real time    0.0001
    CHARGE:  cpu time    0.0080: real time    0.0080
    --------------------------------------------
      LOOP:  cpu time    0.1088: real time    0.1116

 eigenvalue-minimisations  :     0
 total energy-change (2. order) : 0.1439934E+00  (-0.1400057E-01)
 number of electron       7.9999998 magnetization 
 augmentation part       -1.2856746 magnetization 

 Free energy of the ion-electron system (eV)
  ---------------------------------------------------
  alpha Z        PSCENC =        17.10940282
  Ewald energy   TEWEN  =      -220.32663596
  -Hartree energ DENC   =       -16.57965372
  -exchange      EXHF   =         0.00000000
  -V(xc)+E(xc)   XCENC  =       -14.30305320
  PAW double counting   =       470.81051513     -442.23318226
  entropy T*S    EENTRO =         0.00005963
  eigenvalues    EBANDS =       -13.10053025
  atomic energy  EATOM  =       209.99145059
  ---------------------------------------------------
  free energy    TOTEN  =        -8.63161685 eV

  energy without entropy =       -8.63167648  energy(sigma->0) =       -8.63163672


--------------------------------------------------------------------------------------------------------




--------------------------------------- Iteration      1(   7)  ---------------------------------------


    POTLOK:  cpu time    0.0037: real time    0.0037
    SETDIJ:  cpu time    0.0028: real time    0.0028
    TRIAL :  cpu time    0.0794: real time    0.0814
    CORREC:  cpu time    0.0002: real time    0.0002
    CHARGE:  cpu time    0.0079: real time    0.0079
    --------------------------------------------
      LOOP:  cpu time    0.0942: real time    0.0962

 eigenvalue-minimisations  :     0
 total energy-change (2. order) :-0.1228228E-01  (-0.1207116E-01)
 number of electron       7.9999998 magnetization 
 augmentation part       -1.2792502 magnetization 

 Free energy of the ion-electron system (eV)
  ---------------------------------------------------
  alpha Z        PSCENC =        17.10940282
  Ewald energy   TEWEN  =      -220.32663596
  -Hartree energ DENC   =       -16.40530557
  -exchange      EXHF   =         0.00000000
  -V(xc)+E(xc)   XCENC  =       -14.30620291
  PAW double counting   =       473.02836861     -444.44386951
  entropy T*S    EENTRO =         0.00013825
  eigenvalues    EBANDS =       -13.29116683
  atomic energy  EATOM  =       209.99145059
  ---------------------------------------------------
  free energy    TOTEN  =        -8.64389913 eV

  energy without entropy =       -8.64403738  energy(sigma->0) =       -8.64394521


--------------------------------------------------------------------------------------------------------




--------------------------------------- Iteration      1(   8)  ---------------------------------------


    POTLOK:  cpu time    0.0037: real time    0.0037
    SETDIJ:  cpu time    0.0028: real time    0.0028
    TRIAL :  cpu time    0.0797: real time    0.0814
    CORREC:  cpu time    0.0002: real time    0.0002
    CHARGE:  cpu time    0.0078: real time    0.0078
    --------------------------------------------
      LOOP:  cpu time    0.0944: real time    0.0960

 eigenvalue-minimisations  :     0
 total energy-change (2. order) :-0.9868179E-02  (-0.6538757E-02)
 number of electron       7.9999998 magnetization 
 augmentation part       -1.2741513 magnetization 

 Free energy of the ion-electron system (eV)
  ---------------------------------------------------
  alpha Z        PSCENC =        17.10940282
  Ewald energy   TEWEN  =      -220.32663596
  -Hartree energ DENC   =       -16.20442824
  -exchange      EXHF   =         0.00000000
  -V(xc)+E(xc)   XCENC  =       -14.31023156
  PAW double counting   =       475.26616564     -446.67374675
  entropy T*S    EENTRO =         0.00013730
  eigenvalues    EBANDS =       -13.50588209
  atomic energy  EATOM  =       209.99145059
  ---------------------------------------------------
  free energy    TOTEN  =        -8.65376731 eV

  energy without entropy =       -8.65390461  energy(sigma->0) =       -8.65381307


--------------------------------------------------------------------------------------------------------




--------------------------------------- Iteration      1(   9)  ---------------------------------------


    POTLOK:  cpu time    0.0037: real time    0.0037
    SETDIJ:  cpu time    0.0028: real time    0.0027
    TRIAL :  cpu time    0.0796: real time    0.0812
    CORREC:  cpu time    0.0002: real time    0.0002
    CHARGE:  cpu time    0.0079: real time    0.0079
    --------------------------------------------
      LOOP:  cpu time    0.0944: real time    0.0960

 eigenvalue-minimisations  :     0
 total energy-change (2. order) :-0.5204210E-02  (-0.2835562E-02)
 number of electron       7.9999998 magnetization 
 augmentation part       -1.2708004 magnetization 

 Free energy of the ion-electron system (eV)
  ---------------------------------------------------
  alpha Z        PSCENC =        17.10940282
  Ewald energy   TEWEN  =      -220.32663596
  -Hartree energ DENC   =       -16.03817293
  -exchange      EXHF   =         0.00000000
  -V(xc)+E(xc)   XCENC  =       -14.31408504
  PAW double counting   =       476.71024127     -448.11165896
  entropy T*S    EENTRO =         0.00013693
  eigenvalues    EBANDS =       -13.67965059
  atomic energy  EATOM  =       209.99145059
  ---------------------------------------------------
  free energy    TOTEN  =        -8.65897152 eV

  energy without entropy =       -8.65910844  energy(sigma->0) =       -8.65901716


--------------------------------------------------------------------------------------------------------




--------------------------------------- Iteration      1(  10)  ---------------------------------------


    POTLOK:  cpu time    0.0037: real time    0.0037
    SETDIJ:  cpu time    0.0028: real time    0.0028
    TRIAL :  cpu time    0.0798: real time    0.0815
    CORREC:  cpu time    0.0002: real time    0.0002
    CHARGE:  cpu time    0.0078: real time    0.0078
    --------------------------------------------
      LOOP:  cpu time    0.0945: real time    0.0961

 eigenvalue-minimisations  :     0
 total energy-change (2. order) :-0.2200701E-02  (-0.1073408E-02)
 number of electron       7.9999998 magnetization 
 augmentation part       -1.2699791 magnetization 

 Free energy of the ion-electron system (eV)
  ---------------------------------------------------
  alpha Z        PSCENC =        17.10940282
  Ewald energy   TEWEN  =      -220.32663596
  -Hartree energ DENC   =       -15.92121188
  -exchange      EXHF   =         0.00000000
  -V(xc)+E(xc)   XCENC  =       -14.31735226
  PAW double counting   =       477.28845938     -448.68585130
  entropy T*S    EENTRO =         0.00029876
  eigenvalues    EBANDS =       -13.79957052
  atomic energy  EATOM  =       209.99145059
  ---------------------------------------------------
  free energy    TOTEN  =        -8.66117222 eV

  energy without entropy =       -8.66147098  energy(sigma->0) =       -8.66127180


--------------------------------------------------------------------------------------------------------




--------------------------------------- Iteration      1(  11)  ---------------------------------------


    POTLOK:  cpu time    0.0037: real time    0.0037
    SETDIJ:  cpu time    0.0027: real time    0.0027
    TRIAL :  cpu time    0.0799: real time    0.0815
    CORREC:  cpu time    0.0002: real time    0.0002
    CHARGE:  cpu time    0.0080: real time    0.0095
    --------------------------------------------
      LOOP:  cpu time    0.0947: real time    0.0978

 eigenvalue-minimisations  :     0
 total energy-change (2. order) :-0.7750421E-03  (-0.3726000E-03)
 number of electron       7.9999998 magnetization 
 augmentation part       -1.2689454 magnetization 

 Free energy of the ion-electron system (eV)
  ---------------------------------------------------
  alpha Z        PSCENC =        17.10940282
  Ewald energy   TEWEN  =      -220.32663596
  -Hartree energ DENC   =       -15.86120633
  -exchange      EXHF   =         0.00000000
  -V(xc)+E(xc)   XCENC  =       -14.32019791
  PAW double counting   =       477.37024580     -448.76520782
  entropy T*S    EENTRO =         0.00029252
  eigenvalues    EBANDS =       -13.86009720
  atomic energy  EATOM  =       209.99145059
  ---------------------------------------------------
  free energy    TOTEN  =        -8.66194726 eV

  energy without entropy =       -8.66223978  energy(sigma->0) =       -8.66204477


--------------------------------------------------------------------------------------------------------




--------------------------------------- Iteration      1(  12)  ---------------------------------------


    POTLOK:  cpu time    0.0051: real time    0.0054
    SETDIJ:  cpu time    0.0028: real time    0.0028
    TRIAL :  cpu time    0.0804: real time    0.0820
    CORREC:  cpu time    0.0002: real time    0.0002
    CHARGE:  cpu time    0.0078: real time    0.0078
    --------------------------------------------
      LOOP:  cpu time    0.0971: real time    0.0989

 eigenvalue-minimisations  :     0
 total energy-change (2. order) :-0.2737400E-03  (-0.1066456E-03)
 number of electron       7.9999998 magnetization 
 augmentation part       -1.2684458 magnetization 

 Free energy of the ion-electron system (eV)
  ---------------------------------------------------
  alpha Z        PSCENC =        17.10940282
  Ewald energy   TEWEN  =      -220.32663596
  -Hartree energ DENC   =       -15.81870417
  -exchange      EXHF   =         0.00000000
  -V(xc)+E(xc)   XCENC  =       -14.32181610
  PAW double counting   =       477.22147365     -448.61526321
  entropy T*S    EENTRO =         0.00028669
  eigenvalues    EBANDS =       -13.90242113
  atomic energy  EATOM  =       209.99145059
  ---------------------------------------------------
  free energy    TOTEN  =        -8.66222100 eV

  energy without entropy =       -8.66250769  energy(sigma->0) =       -8.66231656


--------------------------------------------------------------------------------------------------------




--------------------------------------- Iteration      1(  13)  ---------------------------------------


    POTLOK:  cpu time    0.0036: real time    0.0036
    SETDIJ:  cpu time    0.0028: real time    0.0028
    TRIAL :  cpu time    0.0796: real time    0.0813
    CORREC:  cpu time    0.0002: real time    0.0002
    EDDIAG:  cpu time    0.0527: real time    0.0540
    CHARGE:  cpu time    0.0075: real time    0.0075
    --------------------------------------------
      LOOP:  cpu time    0.1468: real time    0.1496

 eigenvalue-minimisations  :     0
 total energy-change (2. order) :-0.7313541E-04  (-0.2470989E-04)
 number of electron       7.9999998 magnetization 
 augmentation part       -1.2682562 magnetization 

 Free energy of the ion-electron system (eV)
  ---------------------------------------------------
  alpha Z        PSCENC =        17.10940282
  Ewald energy   TEWEN  =      -220.32663596
  -Hartree energ DENC   =       -15.79674133
  -exchange      EXHF   =         0.00000000
  -V(xc)+E(xc)   XCENC  =       -14.32270888
  PAW double counting   =       477.08070849     -448.47394979
  entropy T*S    EENTRO =         0.00028507
  eigenvalues    EBANDS =       -13.92410675
  atomic energy  EATOM  =       209.99145059
  ---------------------------------------------------
  free energy    TOTEN  =        -8.66229414 eV

  energy without entropy =       -8.66257921  energy(sigma->0) =       -8.66238916


--------------------------------------------------------------------------------------------------------


  average scaling for gradient   1.5486


 average (electrostatic) potential at core
  the test charge radii are     1.1631
  (the norm of the test charge is              1.0000)
       1 -32.8181       2 -32.8181
 
 
 
 E-fermi :   4.0938     XC(G=0):  -9.1510     alpha+bet : -9.2781


 k-point     1 :       0.0000    0.0000    0.0000
  band No.  band energies     occupation 
      1      -8.9524      2.00000
      2       3.9363      2.00005
      3       3.9363      2.00005
      4       3.9363      2.00005
      5       4.1209      0.25595
      6       6.4498      0.00000
      7       6.4498      0.00000
      8       6.4498      0.00000
      9      10.3840      0.00000
     10      13.1998      0.00000
     11      13.1998      0.00000
     12      14.6512      0.00000
     13      14.6512      0.00000
     14      14.6512      0.00000
     15      17.8088      0.00000
     16      28.2830      0.00000
     17      28.2830      0.00000
     18      28.2830      0.00000
     19      29.1128      0.00000
     20      29.1128      0.00000
     21      29.1128      0.00000
     22      29.4814      0.00000
     23      29.4814      0.00000
     24      30.1732      0.00000
     25      30.1732      0.00000
     26      30.1732      0.00000
     27      38.6789      0.00000
     28      39.1267      0.00000
     29      39.1267      0.00000
     30      39.1267      0.00000
     31      41.9584      0.00000
     32      41.9584      0.00000
     33      42.5156      0.00000
     34      42.5156      0.00000
     35      43.4747      0.00000
     36      43.6933      0.00000
     37      43.6933      0.00000
     38      43.6933      0.00000
     39      44.1010      0.00000
     40      44.1010      0.00000
     41      44.1010      0.00000
     42      44.9037      0.00000
     43      44.9037      0.00000
     44      44.9038      0.00000
     45      45.4066      0.00000
     46      45.4066      0.00000
     47      45.4067      0.00000
     48      46.5184      0.00000
     49      46.5184      0.00000
     50      46.5190      0.00000
     51      49.9752      0.00000
     52      51.9414      0.00000
     53      51.9416      0.00000
     54      52.1082      0.00000
     55      52.2207      0.00000
     56      52.2220      0.00000

 k-point     2 :       0.2500    0.0000    0.0000
  band No.  band energies     occupation 
      1      -8.2021      2.00000
      2      -0.8093      2.00000
      3       3.0281      2.00000
      4       3.0281      2.00000
      5       4.6448     -0.00000
      6       7.5425      0.00000
      7       7.5425      0.00000
      8       9.6458      0.00000
      9      11.9432      0.00000
     10      12.1296      0.00000
     11      12.1296      0.00000
     12      14.8534      0.00000
     13      18.7488      0.00000
     14      18.7488      0.00000
     15      21.7113      0.00000
     16      21.7700      0.00000
     17      21.7700      0.00000
     18      22.5812      0.00000
     19      29.3365      0.00000
     20      29.3365      0.00000
     21      29.9866      0.00000
     22      29.9866      0.00000
     23      30.7926      0.00000
     24      31.8913      0.00000
     25      32.8074      0.00000
     26      33.9280      0.00000
     27      33.9280      0.00000
     28      36.9088      0.00000
     29      36.9088      0.00000
     30      37.2227      0.00000
     31      37.2227      0.00000
     32      39.1168      0.00000
     33      39.4715      0.00000
     34      39.4715      0.00000
     35      39.8741      0.00000
     36      40.3040      0.00000
     37      42.6983      0.00000
     38      42.6983      0.00000
     39      43.5367      0.00000
     40      44.4949      0.00000
     41      44.7502      0.00000
     42      44.7502      0.00000
     43      45.0264      0.00000
     44      48.8248      0.00000
     45      48.8248      0.00000
     46      49.9183      0.00000
     47      49.9184      0.00000
     48      50.9425      0.00000
     49      51.0723      0.00000
     50      51.0725      0.00000
     51      52.4423      0.00000
     52      53.5449      0.00000
     53      56.6455      0.00000
     54      56.6656      0.00000
     55      57.4518      0.00000
     56      57.7433      0.00000

 k-point     3 :       0.5000    0.0000    0.0000
  band No.  band energies     occupation 
      1      -6.8351      2.00000
      2      -3.7432      2.00000
      3       2.4958      2.00000
      4       2.4958      2.00000
      5       4.1527     -0.06402
      6       7.6341      0.00000
      7       7.6341      0.00000
      8      11.0264      0.00000
      9      14.5605      0.00000
     10      15.0975      0.00000
     11      15.0975      0.00000
     12      15.1908      0.00000
     13      16.0709      0.00000
     14      16.0709      0.00000
     15      22.7083      0.00000
     16      23.8917      0.00000
     17      25.3668      0.00000
     18      25.3668      0.00000
     19      25.4999      0.00000
     20      25.4999      0.00000
     21      28.8467      0.00000
     22      30.0307      0.00000
     23      30.2836      0.00000
     24      30.2836      0.00000
     25      31.0129      0.00000
     26      31.0129      0.00000
     27      31.6987      0.00000
     28      35.2060      0.00000
     29      35.2060      0.00000
     30      35.3328      0.00000
     31      35.3328      0.00000
     32      36.1536      0.00000
     33      37.2505      0.00000
     34      37.4327      0.00000
     35      42.5202      0.00000
     36      42.5202      0.00000
     37      42.7948      0.00000
     38      43.7775      0.00000
     39      43.7775      0.00000
     40      44.7337      0.00000
     41      48.1144      0.00000
     42      48.1145      0.00000
     43      49.4671      0.00000
     44      49.4672      0.00000
     45      50.2709      0.00000
     46      52.4412      0.00000
     47      52.8948      0.00000
     48      52.8956      0.00000
     49      54.2677      0.00000
     50      54.2685      0.00000
     51      54.8513      0.00000
     52      56.0449      0.00000
     53      56.0499      0.00000
     54      57.7585      0.00000
     55      57.7981      0.00000
     56      58.6393      0.00000

 k-point     4 :       0.2500    0.2500    0.0000
  band No.  band energies     occupation 
      1      -7.9309      2.00000
      2      -0.7727      2.00000
      3       1.8433      2.00000
      4       1.8433      2.00000
      5       4.9050     -0.00000
      6       6.6914      0.00000
      7       9.7854      0.00000
      8       9.7854      0.00000
      9      11.0505      0.00000
     10      14.1436      0.00000
     11      14.2351      0.00000
     12      16.7507      0.00000
     13      16.7507      0.00000
     14      17.4491      0.00000
     15      21.3784      0.00000
     16      21.3784      0.00000
     17      22.5765      0.00000
     18      23.4817      0.00000
     19      24.4349      0.00000
     20      29.2926      0.00000
     21      30.5613      0.00000
     22      30.5613      0.00000
     23      30.8206      0.00000
     24      31.8785      0.00000
     25      31.8785      0.00000
     26      32.8676      0.00000
     27      33.3697      0.00000
     28      36.7568      0.00000
     29      37.8468      0.00000
     30      37.9127      0.00000
     31      37.9127      0.00000
     32      38.8217      0.00000
     33      38.8217      0.00000
     34      39.8788      0.00000
     35      41.2235      0.00000
     36      41.2235      0.00000
     37      41.7352      0.00000
     38      41.8778      0.00000
     39      42.6752      0.00000
     40      44.8033      0.00000
     41      45.1070      0.00000
     42      45.1070      0.00000
     43      46.7797      0.00000
     44      49.0142      0.00000
     45      49.0142      0.00000
     46      49.2418      0.00000
     47      49.5599      0.00000
     48      50.6849      0.00000
     49      50.6849      0.00000
     50      51.0541      0.00000
     51      52.2145      0.00000
     52      52.3498      0.00000
     53      55.5783      0.00000
     54      56.9437      0.00000
     55      56.9539      0.00000
     56      59.8586      0.00000

 k-point     5 :       0.5000    0.2500    0.0000
  band No.  band energies     occupation 
      1      -6.4202      2.00000
      2      -3.4974      2.00000
      3       0.1268      2.00000
      4       1.4731      2.00000
      5       5.3177     -0.00000
      6       8.1728      0.00000
      7       9.3809      0.00000
      8      10.1327      0.00000
      9      13.9518      0.00000
     10      15.1792      0.00000
     11      15.7711      0.00000
     12      16.2300      0.00000
     13      17.0631      0.00000
     14      20.5936      0.00000
     15      21.6143      0.00000
     16      22.6331      0.00000
     17      23.1577      0.00000
     18      23.3596      0.00000
     19      23.7034      0.00000
     20      25.5723      0.00000
     21      27.6861      0.00000
     22      28.1841      0.00000
     23      28.8807      0.00000
     24      30.4644      0.00000
     25      31.5007      0.00000
     26      31.8278      0.00000
     27      32.1514      0.00000
     28      33.1803      0.00000
     29      34.7729      0.00000
     30      36.4621      0.00000
     31      37.0069      0.00000
     32      38.5453      0.00000
     33      39.2084      0.00000
     34      39.3247      0.00000
     35      39.7949      0.00000
     36      42.5384      0.00000
     37      44.5001      0.00000
     38      45.0640      0.00000
     39      45.7917      0.00000
     40      45.9565      0.00000
     41      46.1876      0.00000
     42      47.2109      0.00000
     43      47.4894      0.00000
     44      49.0406      0.00000
     45      49.7104      0.00000
     46      50.2752      0.00000
     47      51.4704      0.00000
     48      51.8649      0.00000
     49      53.7813      0.00000
     50      54.6090      0.00000
     51      55.6067      0.00000
     52      55.8657      0.00000
     53      56.6585      0.00000
     54      58.0821      0.00000
     55      58.5293      0.00000
     56      60.2644      0.00000

 k-point     6 :      -0.2500    0.2500    0.0000
  band No.  band energies     occupation 
      1      -7.0443      2.00000
      2      -2.6260      2.00000
      3      -0.0211      2.00000
      4       2.3916      2.00000
      5       5.9018      0.00000
      6       8.7099      0.00000
      7       9.0829      0.00000
      8       9.2575      0.00000
      9      11.4846      0.00000
     10      13.4042      0.00000
     11      15.8748      0.00000
     12      16.4957      0.00000
     13      17.5867      0.00000
     14      20.2090      0.00000
     15      21.6888      0.00000
     16      22.4423      0.00000
     17      22.6287      0.00000
     18      24.5867      0.00000
     19      25.1801      0.00000
     20      27.0788      0.00000
     21      27.7075      0.00000
     22      28.6918      0.00000
     23      29.5425      0.00000
     24      29.5555      0.00000
     25      31.2784      0.00000
     26      31.5050      0.00000
     27      33.2852      0.00000
     28      33.4940      0.00000
     29      37.3537      0.00000
     30      37.7601      0.00000
     31      37.9625      0.00000
     32      38.2488      0.00000
     33      39.0278      0.00000
     34      39.3865      0.00000
     35      39.4656      0.00000
     36      39.7323      0.00000
     37      39.8953      0.00000
     38      43.9512      0.00000
     39      45.1853      0.00000
     40      46.4838      0.00000
     41      46.9377      0.00000
     42      47.0470      0.00000
     43      49.3891      0.00000
     44      50.1068      0.00000
     45      50.8749      0.00000
     46      51.3669      0.00000
     47      51.3978      0.00000
     48      52.2070      0.00000
     49      52.5454      0.00000
     50      53.5306      0.00000
     51      53.9210      0.00000
     52      56.1193      0.00000
     53      56.5878      0.00000
     54      56.7450      0.00000
     55      57.5496      0.00000
     56      57.6692      0.00000

 k-point     7 :       0.5000    0.5000    0.0000
  band No.  band energies     occupation 
      1      -5.0155      2.00000
      2      -5.0155      2.00000
      3       0.7880      2.00000
      4       0.7880      2.00000
      5       4.6347     -0.00000
      6       4.6347     -0.00000
      7      13.5102      0.00000
      8      13.5102      0.00000
      9      15.6682      0.00000
     10      15.6682      0.00000
     11      16.4923      0.00000
     12      16.4923      0.00000
     13      17.3553      0.00000
     14      17.3553      0.00000
     15      22.8983      0.00000
     16      22.8983      0.00000
     17      22.9073      0.00000
     18      22.9073      0.00000
     19      22.9282      0.00000
     20      22.9282      0.00000
     21      23.6071      0.00000
     22      23.6071      0.00000
     23      30.8554      0.00000
     24      30.8554      0.00000
     25      32.2956      0.00000
     26      32.2956      0.00000
     27      35.7559      0.00000
     28      35.7559      0.00000
     29      36.4767      0.00000
     30      36.4767      0.00000
     31      38.5674      0.00000
     32      38.5674      0.00000
     33      38.7869      0.00000
     34      38.7869      0.00000
     35      40.1035      0.00000
     36      40.1035      0.00000
     37      42.5419      0.00000
     38      42.5419      0.00000
     39      42.9449      0.00000
     40      42.9449      0.00000
     41      47.0083      0.00000
     42      47.0083      0.00000
     43      49.8589      0.00000
     44      49.8589      0.00000
     45      50.3221      0.00000
     46      50.3221      0.00000
     47      55.1329      0.00000
     48      55.1528      0.00000
     49      55.9747      0.00000
     50      55.9885      0.00000
     51      56.9595      0.00000
     52      57.0104      0.00000
     53      57.1711      0.00000
     54      57.1981      0.00000
     55      57.9929      0.00000
     56      58.3588      0.00000

 k-point     8 :      -0.2500    0.5000    0.2500
  band No.  band energies     occupation 
      1      -4.9128      2.00000
      2      -4.9128      2.00000
      3      -0.0661      2.00000
      4      -0.0661      2.00000
      5       8.2851      0.00000
      6       8.2851      0.00000
      7       8.6201      0.00000
      8       8.6201      0.00000
      9      14.9453      0.00000
     10      14.9453      0.00000
     11      16.8221      0.00000
     12      16.8221      0.00000
     13      20.2230      0.00000
     14      20.2230      0.00000
     15      21.0785      0.00000
     16      21.0785      0.00000
     17      23.3846      0.00000
     18      23.3846      0.00000
     19      24.6284      0.00000
     20      24.6284      0.00000
     21      27.0921      0.00000
     22      27.0921      0.00000
     23      29.7685      0.00000
     24      29.7685      0.00000
     25      29.9035      0.00000
     26      29.9035      0.00000
     27      30.5630      0.00000
     28      30.5630      0.00000
     29      36.5006      0.00000
     30      36.5006      0.00000
     31      38.1471      0.00000
     32      38.1471      0.00000
     33      40.1275      0.00000
     34      40.1275      0.00000
     35      41.8800      0.00000
     36      41.8800      0.00000
     37      44.9151      0.00000
     38      44.9151      0.00000
     39      45.9078      0.00000
     40      45.9078      0.00000
     41      48.0604      0.00000
     42      48.0604      0.00000
     43      48.2754      0.00000
     44      48.2755      0.00000
     45      49.5024      0.00000
     46      49.5024      0.00000
     47      51.8624      0.00000
     48      51.8626      0.00000
     49      55.6661      0.00000
     50      55.6714      0.00000
     51      55.6776      0.00000
     52      55.6909      0.00000
     53      57.1634      0.00000
     54      57.1807      0.00000
     55      58.7882      0.00000
     56      58.9146      0.00000


--------------------------------------------------------------------------------------------------------


 soft charge-density along one line, spin component           1
         0         1         2         3         4         5         6         7         8         9
 total charge-density along one line
 
 pseudopotential strength for first ion, spin component:           1
 14.458   0.000  18.037   0.000   0.000   0.000   0.000   0.000   0.000   0.000   0.000   0.000   0.000   0.000   0.000   0.000
 18.037   0.000  22.518   0.000   0.000   0.000   0.000   0.000   0.000   0.000   0.000   0.000   0.000   0.000   0.000   0.000
  0.000   0.000   0.000   0.000   3.224   0.000   0.000   0.000   0.000   0.000   5.491   0.000   0.000   0.000   0.000   0.000
  0.000   0.000   0.000   0.000   0.000   0.000   3.224   0.000   0.000   0.000   0.000   0.000   5.491   0.000   0.000   0.000
  0.000   0.000   0.000   0.000   0.000   0.000   0.000   0.000   3.224   0.000   0.000   0.000   0.000   0.000   5.491   0.000
  0.000   0.000   0.000   0.000   5.491   0.000   0.000   0.000   0.000   0.000   9.412   0.000   0.000   0.000   0.000   0.000
  0.000   0.000   0.000   0.000   0.000   0.000   5.491   0.000   0.000   0.000   0.000   0.000   9.412   0.000   0.000   0.000
  0.000   0.000   0.000   0.000   0.000   0.000   0.000   0.000   5.491   0.000   0.000   0.000   0.000   0.000   9.412   0.000
  0.000   0.000   0.000   0.000   0.000   0.000   0.003   0.000   0.000   0.000   0.000   0.000   0.004   0.000   0.000   0.000
  0.000   0.000   0.000   0.000   0.000   0.000   0.000   0.000   0.003   0.000   0.000   0.000   0.000   0.000   0.004   0.000
 -0.000   0.000  -0.000   0.000   0.000   0.000  -0.000   0.000   0.000   0.000   0.000   0.000  -0.000   0.000   0.000   0.000
  0.000   0.000   0.000   0.000   0.003   0.000   0.000   0.000   0.000   0.000   0.004   0.000   0.000   0.000   0.000   0.000
 -0.000   0.000  -0.000   0.000   0.000   0.000   0.000   0.000  -0.000   0.000   0.000   0.000   0.000   0.000  -0.000   0.000
 total augmentation occupancy for first ion, spin component:           1
  3.753  -1.159   0.000   0.000   0.000  -0.000  -0.000   0.000   0.000   0.000   0.000   0.000  -0.000
 -1.159   0.480   0.000   0.000   0.000   0.000   0.000  -0.000   0.000  -0.000  -0.000  -0.000   0.000
  0.000   0.000   2.125  -0.000  -0.000  -0.360   0.000  -0.000   0.000  -0.000   0.000   0.194   0.000
  0.000   0.000  -0.000   2.125   0.000   0.000  -0.360   0.000   0.194  -0.000  -0.000  -0.000   0.000
  0.000   0.000  -0.000   0.000   2.125   0.000   0.000  -0.360  -0.000   0.194   0.000   0.000  -0.000
 -0.000  -0.000  -0.360   0.000   0.000   0.069   0.000   0.000   0.000  -0.000  -0.000  -0.033   0.000
 -0.000  -0.000  -0.000  -0.360  -0.000  -0.000   0.069   0.000  -0.033   0.000   0.000   0.000   0.000
  0.000   0.000   0.000   0.000  -0.360   0.000   0.000   0.069  -0.000  -0.033   0.000  -0.000   0.000
 -0.000  -0.000   0.000   0.194   0.000   0.000  -0.033   0.000   0.030   0.000   0.000  -0.000   0.000
  0.000   0.000   0.000   0.000   0.194  -0.000   0.000  -0.033   0.000   0.030  -0.000   0.000   0.000
  0.000  -0.000   0.000   0.000   0.000  -0.000   0.000   0.000   0.000   0.000   0.008   0.000   0.000
 -0.000   0.000   0.194  -0.000  -0.000  -0.033   0.000   0.000  -0.000  -0.000  -0.000   0.030   0.000
  0.000   0.000   0.000  -0.000  -0.000   0.000   0.000   0.000   0.000   0.000   0.000   0.000   0.008


------------------------ aborting loop because EDIFF is reached ----------------------------------------


    FORLOC:  cpu time    0.0009: real time    0.0009
    FORNL :  cpu time    0.0056: real time    0.0057
    STRESS:  cpu time    0.0410: real time    0.0413
    FORCOR:  cpu time    0.0039: real time    0.0039
    OFIELD:  cpu time    0.0001: real time    0.0001

  FORCE on cell =-STRESS in cart. coord.  units (eV):
  Direction    XX          YY          ZZ          XY          YZ          ZX
  --------------------------------------------------------------------------------------
  Alpha Z    17.10940    17.10940    17.10940
  Ewald     -73.44225   -73.44225   -73.44225     0.00000     0.00000     0.00000
  Hartree     5.26245     5.26245     5.26245     0.00000     0.00000     0.00000
  E(xc)     -27.91793   -27.91793   -27.91793     0.00000     0.00000     0.00000
  Local     -23.50092   -23.50092   -23.50092     0.00000     0.00000     0.00000
  n-local    41.17367    41.35081    38.16534     1.45640    -0.50271     0.50263
  augment     2.36108     2.36108     2.36108    -0.00000    -0.00000    -0.00000
  Kinetic    63.84905    63.29389    57.35164     5.06054    -1.44590     1.44590
  Fock        0.00000     0.00000     0.00000     0.00000     0.00000     0.00000
  -------------------------------------------------------------------------------------
  Total       1.59998     1.59998     1.59998    -0.00000    -0.00000     0.00000
  in kB      57.36764    57.36764    57.36764    -0.00000    -0.00000     0.00000
  external pressure =       57.37 kB  Pullay stress =        0.00 kB


 VOLUME and BASIS-vectors are now :
 -----------------------------------------------------------------------------
  energy-cutoff  :      450.00
  volume of cell :       44.68
      direct lattice vectors                 reciprocal lattice vectors
     0.000000000  2.816500000  2.816500000    -0.177525297  0.177525297  0.177525297
     2.816500000  0.000000000  2.816500000     0.177525297 -0.177525297  0.177525297
     2.816500000  2.816500000  0.000000000     0.177525297  0.177525297 -0.177525297

  length of vectors
     3.983132498  3.983132498  3.983132498     0.307482835  0.307482835  0.307482835


 FORCES acting on ions:
    Electron-Ion                     Ewald-Force                    Non-Local-Force
 -----------------------------------------------------------------------------------------------
   -.134E-06 -.134E-06 -.134E-06   0.204E-14 0.421E-14 0.352E-14   -.139E-16 0.694E-17 0.867E-18
   0.134E-06 0.134E-06 0.134E-06   -.214E-14 -.407E-14 -.341E-14   0.139E-16 -.694E-17 0.000E+00
 -----------------------------------------------------------------------------------------------
   -.370E-13 0.814E-14 0.920E-14   -.101E-15 0.144E-15 0.110E-15   0.000E+00 0.000E+00 0.867E-18
 
 
 POSITION                                       TOTAL-FORCE (eV/Angst)
 -----------------------------------------------------------------------------------
      0.00000      0.00000      0.00000        -0.000000      0.000000     -0.000000
      1.40825      1.40825      1.40825         0.000000     -0.000000      0.000000
 -----------------------------------------------------------------------------------
    total drift:                               -0.000000      0.000000      0.000000


--------------------------------------------------------------------------------------------------------



  FREE ENERGIE OF THE ION-ELECTRON SYSTEM (eV)
  ---------------------------------------------------
  free  energy   TOTEN  =        -8.66229414 eV

  energy  without entropy=       -8.66257921  energy(sigma->0) =       -8.66238916
 


--------------------------------------------------------------------------------------------------------


    POTLOK:  cpu time    0.0067: real time    0.0067


--------------------------------------------------------------------------------------------------------


 writing wavefunctions
     LOOP+:  cpu time    5.0273: real time    5.3504
    4ORBIT:  cpu time    0.0000: real time    0.0000

 total amount of memory used by VASP MPI-rank0    32192. kBytes
=======================================================================

   base      :      30000. kBytes
   nonl-proj :        870. kBytes
   fftplans  :        272. kBytes
   grid      :        626. kBytes
   one-center:         16. kBytes
   wavefun   :        408. kBytes
 
  
  
 General timing and accounting informations for this job:
 ========================================================
  
                  Total CPU time used (sec):        5.680
                            User time (sec):        5.376
                          System time (sec):        0.304
                         Elapsed time (sec):        6.154
  
                   Maximum memory used (kb):       51628.
                   Average memory used (kb):           0.
  
                          Minor page faults:        20983
                          Major page faults:            0
                 Voluntary context switches:         1494
