 running on   56 total cores
 distrk:  each k-point on   56 cores,    1 groups
 distr:  one band on    1 cores,   56 groups
 using from now: INCAR     
 vasp.5.4.4.18Apr17-6-g9f103f2a35 (build Nov 08 2017 12:56:59) complex          
  
 POSCAR found type information on POSCAR  Ge
 POSCAR found :  1 types and       2 ions
 scaLAPACK will be used

 ----------------------------------------------------------------------------- 
|                                                                             |
|           W    W    AA    RRRRR   N    N  II  N    N   GGGG   !!!           |
|           W    W   A  A   R    R  NN   N  II  NN   N  G    G  !!!           |
|           W    W  A    A  R    R  N N  N  II  N N  N  G       !!!           |
|           W WW W  AAAAAA  RRRRR   N  N N  II  N  N N  G  GGG   !            |
|           WW  WW  A    A  R   R   N   NN  II  N   NN  G    G                |
|           W    W  A    A  R    R  N    N  II  N    N   GGGG   !!!           |
|                                                                             |
|      For optimal performance we recommend to set                            |
|        NCORE= 4 - approx SQRT( number of cores)                             |
|      NCORE specifies how many cores store one orbital (NPAR=cpu/NCORE).     |
|      This setting can  greatly improve the performance of VASP for DFT.     |
|      The default,   NCORE=1            might be grossly inefficient         |
|      on modern multi-core architectures or massively parallel machines.     |
|      Do your own testing !!!!                                               |
|      Unfortunately you need to use the default for GW and RPA calculations. |
|      (for HF NCORE is supported but not extensively tested yet)             |
|                                                                             |
 ----------------------------------------------------------------------------- 

 LDA part: xc-table for Pade appr. of Perdew
 POSCAR, INCAR and KPOINTS ok, starting setup
 FFT: planning ...
 WAVECAR not read
 entering main loop
       N       E                     dE             d eps       ncg     rms          ort
DAV:   1    -0.191763622999E+01   -0.19176E+01   -0.49197E+03   448   0.142E+02
DAV:   2    -0.874025093275E+01   -0.68226E+01   -0.68026E+01   448   0.125E+01
DAV:   3    -0.877521892769E+01   -0.34968E-01   -0.34967E-01   448   0.119E+00
DAV:   4    -0.877552002075E+01   -0.30109E-03   -0.30109E-03   448   0.981E-02
DAV:   5    -0.877561026281E+01   -0.90242E-04   -0.60528E-06   448   0.490E-03
 gam= 0.000 g(H,U,f)=  0.576E-02 0.293E-01-0.814E-05 ort(H,U,f) = 0.000E+00 0.000E+00 0.000E+00
SDA:   6    -0.863161684748E+01    0.14399E+00   -0.14001E-01   448   0.350E-01 0.000E+00
 gam= 0.382 g(H,U,f)=  0.190E-02 0.182E-01-0.460E-05 ort(H,U,f) = 0.336E-02 0.231E-01-0.621E-05
DMP:   7    -0.864389912723E+01   -0.12282E-01   -0.12071E-01   448   0.201E-01 0.264E-01
 gam= 0.382 g(H,U,f)=  0.223E-03 0.862E-02-0.130E-06 ort(H,U,f) = 0.104E-02 0.186E-01-0.353E-06
DMP:   8    -0.865376730669E+01   -0.98682E-02   -0.65388E-02   448   0.885E-02 0.196E-01
 gam= 0.382 g(H,U,f)=  0.502E-04 0.334E-02-0.146E-07 ort(H,U,f) =-0.765E-04 0.977E-02-0.709E-07
DMP:   9    -0.865897151662E+01   -0.52042E-02   -0.28356E-02   448   0.339E-02 0.969E-02
 gam= 0.382 g(H,U,f)=  0.105E-03 0.108E-02-0.155E-08 ort(H,U,f) =-0.697E-04 0.399E-02-0.881E-08
DMP:  10    -0.866117221765E+01   -0.22007E-02   -0.10734E-02   448   0.118E-02 0.392E-02
 gam= 0.382 g(H,U,f)=  0.699E-04 0.315E-03-0.175E-06 ort(H,U,f) = 0.518E-04 0.138E-02-0.115E-05
DMP:  11    -0.866194725974E+01   -0.77504E-03   -0.37260E-03   448   0.384E-03 0.143E-02
 gam= 0.382 g(H,U,f)=  0.231E-04 0.761E-04 0.807E-07 ort(H,U,f) = 0.467E-04 0.390E-03 0.160E-05
DMP:  12    -0.866222099978E+01   -0.27374E-03   -0.10665E-03   448   0.993E-04 0.438E-03
 gam= 0.382 g(H,U,f)=  0.391E-05 0.191E-04 0.134E-06 ort(H,U,f) = 0.127E-04 0.896E-04-0.104E-05
DMP:  13    -0.866229413518E+01   -0.73135E-04   -0.24710E-04   448   0.231E-04 0.101E-03
 final diagonalization
   1 F= -.86622941E+01 E0= -.86623892E+01  d E =0.285074E-03
 writing wavefunctions
