<?xml version="1.0" encoding="ISO-8859-1"?>
<modeling>
 <generator>
  <i name="program" type="string">vasp </i>
  <i name="version" type="string">5.4.4.18Apr17-6-g9f103f2a35  </i>
  <i name="subversion" type="string">(build Sep 10 2021 22:26:18) complex            parallel </i>
  <i name="platform" type="string">LinuxIFC </i>
  <i name="date" type="string">2022 02 18 </i>
  <i name="time" type="string">01:34:18 </i>
 </generator>
 <incar>
  <i type="int" name="ISTART">     0</i>
  <i type="string" name="PREC">n</i>
  <i type="string" name="ALGO"> D</i>
  <i type="int" name="ISPIN">     2</i>
  <i type="int" name="ICHARG">     2</i>
  <i name="ENCUT">    450.00000000</i>
  <i type="int" name="NBANDS">    54</i>
  <v name="MAGMOM">      0.00000000      0.00000000      0.00000000      0.00000000      0.00000000      0.00000000</v>
  <i name="SIGMA">      0.05000000</i>
  <v type="int" name="KPOINT_BSE">    -1     0     0     0</v>
  <i type="string" name="GGA"> PE</i>
 </incar>
 <structure name="primitive_cell" >
  <crystal>
   <varray name="basis" >
    <v>       0.00000000       2.81650000       2.81650000 </v>
    <v>       2.81650000       0.00000000       2.81650000 </v>
    <v>       2.81650000       2.81650000       0.00000000 </v>
   </varray>
   <i name="volume">     44.68474278 </i>
   <varray name="rec_basis" >
    <v>      -0.17752530       0.17752530       0.17752530 </v>
    <v>       0.17752530      -0.17752530       0.17752530 </v>
    <v>       0.17752530       0.17752530      -0.17752530 </v>
   </varray>
  </crystal>
  <varray name="positions" >
   <v>       0.00000000       0.00000000       0.00000000 </v>
   <v>       0.25000000       0.25000000       0.25000000 </v>
  </varray>
 </structure>
 <varray name="primitive_index" >
  <v type="int" >        1 </v>
  <v type="int" >        2 </v>
 </varray>
 <kpoints>
  <generation param="Gamma">
   <v type="int" name="divisions">       4        4        4 </v>
   <v name="usershift">      0.00000000       0.00000000       0.00000000 </v>
   <v name="genvec1">      0.25000000       0.00000000       0.00000000 </v>
   <v name="genvec2">      0.00000000       0.25000000       0.00000000 </v>
   <v name="genvec3">      0.00000000       0.00000000       0.25000000 </v>
   <v name="shift">      0.00000000       0.00000000       0.00000000 </v>
  </generation>
  <varray name="kpointlist" >
   <v>       0.00000000       0.00000000       0.00000000 </v>
   <v>       0.25000000       0.00000000       0.00000000 </v>
   <v>       0.50000000       0.00000000       0.00000000 </v>
   <v>       0.25000000       0.25000000       0.00000000 </v>
   <v>       0.50000000       0.25000000       0.00000000 </v>
   <v>      -0.25000000       0.25000000       0.00000000 </v>
   <v>       0.50000000       0.50000000       0.00000000 </v>
   <v>      -0.25000000       0.50000000       0.25000000 </v>
  </varray>
  <varray name="weights" >
   <v>       0.01562500 </v>
   <v>       0.12500000 </v>
   <v>       0.06250000 </v>
   <v>       0.09375000 </v>
   <v>       0.37500000 </v>
   <v>       0.18750000 </v>
   <v>       0.04687500 </v>
   <v>       0.09375000 </v>
  </varray>
 </kpoints>
 <parameters>
  <separator name="general" >
   <i type="string" name="SYSTEM">unknown system</i>
   <i type="logical" name="LCOMPAT"> F  </i>
  </separator>
  <separator name="electronic" >
   <i type="string" name="PREC">n</i>
   <i name="ENMAX">    450.00000000</i>
   <i name="ENAUG">    385.84300000</i>
   <i name="EDIFF">      0.00010000</i>
   <i type="int" name="IALGO">    53</i>
   <i type="int" name="IWAVPR">    10</i>
   <i type="int" name="NBANDS">    54</i>
   <i name="NELECT">      8.00000000</i>
   <i type="int" name="TURBO">     0</i>
   <i type="int" name="IRESTART">     0</i>
   <i type="int" name="NREBOOT">     0</i>
   <i type="int" name="NMIN">     0</i>
   <i name="EREF">      0.00000000</i>
   <separator name="electronic smearing" >
    <i type="int" name="ISMEAR">     1</i>
    <i name="SIGMA">      0.05000000</i>
    <i name="KSPACING">      0.50000000</i>
    <i type="logical" name="KGAMMA"> T  </i>
   </separator>
   <separator name="electronic projectors" >
    <i type="logical" name="LREAL"> F  </i>
    <v name="ROPT">      0.00000000</v>
    <i type="int" name="LMAXPAW">  -100</i>
    <i type="int" name="LMAXMIX">     2</i>
    <i type="logical" name="NLSPLINE"> F  </i>
   </separator>
   <separator name="electronic startup" >
    <i type="int" name="ISTART">     0</i>
    <i type="int" name="ICHARG">     2</i>
    <i type="int" name="INIWAV">     1</i>
   </separator>
   <separator name="electronic spin" >
    <i type="int" name="ISPIN">     2</i>
    <i type="logical" name="LNONCOLLINEAR"> F  </i>
    <v name="MAGMOM">      0.00000000      0.00000000</v>
    <i name="NUPDOWN">     -1.00000000</i>
    <i type="logical" name="LSORBIT"> F  </i>
    <v name="SAXIS">      0.00000000      0.00000000      1.00000000</v>
    <i type="logical" name="LSPIRAL"> F  </i>
    <v name="QSPIRAL">      0.00000000      0.00000000      0.00000000</v>
    <i type="logical" name="LZEROZ"> F  </i>
   </separator>
   <separator name="electronic exchange-correlation" >
    <i type="logical" name="LASPH"> F  </i>
    <i type="logical" name="LMETAGGA"> F  </i>
   </separator>
   <separator name="electronic convergence" >
    <i type="int" name="NELM">    60</i>
    <i type="int" name="NELMDL">    -5</i>
    <i type="int" name="NELMIN">     2</i>
    <i name="ENINI">    450.00000000</i>
    <separator name="electronic convergence detail" >
     <i type="logical" name="LDIAG"> T  </i>
     <i type="logical" name="LSUBROT"> F  </i>
     <i name="WEIMIN">      0.00000000</i>
     <i name="EBREAK">      0.00000046</i>
     <i name="DEPER">      0.30000000</i>
     <i type="int" name="NRMM">     4</i>
     <i name="TIME">      0.40000000</i>
    </separator>
   </separator>
   <separator name="electronic mixer" >
    <i name="AMIX">      0.40000000</i>
    <i name="BMIX">      1.00000000</i>
    <i name="AMIN">      0.10000000</i>
    <i name="AMIX_MAG">      1.60000000</i>
    <i name="BMIX_MAG">      1.00000000</i>
    <separator name="electronic mixer details" >
     <i type="int" name="IMIX">     4</i>
     <i type="logical" name="MIXFIRST"> F  </i>
     <i type="int" name="MAXMIX">   -45</i>
     <i name="WC">    100.00000000</i>
     <i type="int" name="INIMIX">     1</i>
     <i type="int" name="MIXPRE">     1</i>
     <i type="int" name="MREMOVE">     5</i>
    </separator>
   </separator>
   <separator name="electronic dipolcorrection" >
    <i type="logical" name="LDIPOL"> F  </i>
    <i type="logical" name="LMONO"> F  </i>
    <i type="int" name="IDIPOL">     0</i>
    <i name="EPSILON">      1.00000000</i>
    <v name="DIPOL">   -100.00000000   -100.00000000   -100.00000000</v>
    <i name="EFIELD">      0.00000000</i>
   </separator>
  </separator>
  <separator name="grids" >
   <i type="int" name="NGX">    24</i>
   <i type="int" name="NGY">    24</i>
   <i type="int" name="NGZ">    24</i>
   <i type="int" name="NGXF">    48</i>
   <i type="int" name="NGYF">    48</i>
   <i type="int" name="NGZF">    48</i>
   <i type="logical" name="ADDGRID"> F  </i>
  </separator>
  <separator name="ionic" >
   <i type="int" name="NSW">     0</i>
   <i type="int" name="IBRION">    -1</i>
   <i type="int" name="MDALGO">     0</i>
   <i type="int" name="ISIF">     2</i>
   <i name="PSTRESS">      0.00000000</i>
   <i name="EDIFFG">      0.00100000</i>
   <i type="int" name="NFREE">     0</i>
   <i name="POTIM">      0.50000000</i>
   <i name="SMASS">     -3.00000000</i>
   <i name="SCALEE">      1.00000000</i>
  </separator>
  <separator name="ionic md" >
   <i name="TEBEG">      0.00010000</i>
   <i name="TEEND">      0.00010000</i>
   <i type="int" name="NBLOCK">     1</i>
   <i type="int" name="KBLOCK">     1</i>
   <i type="int" name="NPACO">   256</i>
   <i name="APACO">     16.00000000</i>
  </separator>
  <separator name="symmetry" >
   <i type="int" name="ISYM">     2</i>
   <i name="SYMPREC">      0.00001000</i>
  </separator>
  <separator name="dos" >
   <i type="int" name="LORBIT">     0</i>
   <v name="RWIGS">     -1.00000000</v>
   <i type="int" name="NEDOS">   301</i>
   <i name="EMIN">     10.00000000</i>
   <i name="EMAX">    -10.00000000</i>
   <i name="EFERMI">      0.00000000</i>
  </separator>
  <separator name="writing" >
   <i type="int" name="NWRITE">     2</i>
   <i type="logical" name="LWAVE"> T  </i>
   <i type="logical" name="LDOWNSAMPLE"> F  </i>
   <i type="logical" name="LCHARG"> T  </i>
   <i type="logical" name="LPARD"> F  </i>
   <i type="logical" name="LVTOT"> F  </i>
   <i type="logical" name="LVHAR"> F  </i>
   <i type="logical" name="LELF"> F  </i>
   <i type="logical" name="LOPTICS"> F  </i>
   <v name="STM">      0.00000000      0.00000000      0.00000000      0.00000000      0.00000000      0.00000000      0.00000000</v>
  </separator>
  <separator name="performance" >
   <i type="int" name="NPAR">     3</i>
   <i type="int" name="NSIM">     4</i>
   <i type="int" name="NBLK">    -1</i>
   <i type="logical" name="LPLANE"> T  </i>
   <i type="logical" name="LSCALAPACK"> T  </i>
   <i type="logical" name="LSCAAWARE"> F  </i>
   <i type="logical" name="LSCALU"> F  </i>
   <i type="logical" name="LASYNC"> F  </i>
   <i type="logical" name="LORBITALREAL"> F  </i>
  </separator>
  <separator name="miscellaneous" >
   <i type="int" name="IDIOT">     3</i>
   <i type="int" name="ISPECIAL">     0</i>
   <i type="logical" name="LMUSIC"> F  </i>
   <v name="POMASS">     72.61000000</v>
   <v name="DARWINR">      0.00000000</v>
   <v name="DARWINV">      1.00000000</v>
   <i type="logical" name="LCORR"> T  </i>
  </separator>
  <i type="logical" name="GGA_COMPAT"> T  </i>
  <i type="logical" name="LBERRY"> F  </i>
  <i type="int" name="ICORELEVEL">     0</i>
  <i type="logical" name="LDAU"> F  </i>
  <i type="int" name="I_CONSTRAINED_M">     0</i>
  <separator name="electronic exchange-correlation" >
   <i type="string" name="GGA">PE</i>
   <i type="int" name="VOSKOWN">     0</i>
   <i type="logical" name="LHFCALC"> F  </i>
   <i type="string" name="PRECFOCK"></i>
   <i type="logical" name="LSYMGRAD"> F  </i>
   <i type="logical" name="LHFONE"> F  </i>
   <i type="logical" name="LRHFCALC"> F  </i>
   <i type="logical" name="LTHOMAS"> F  </i>
   <i type="logical" name="LMODELHF"> F  </i>
   <i name="ENCUT4O">     -1.00000000</i>
   <i type="int" name="EXXOEP">     0</i>
   <i type="int" name="FOURORBIT">     0</i>
   <i name="AEXX">      0.00000000</i>
   <i name="HFALPHA">      0.00000000</i>
   <i name="MCALPHA">      0.00000000</i>
   <i name="ALDAX">      1.00000000</i>
   <i name="AGGAX">      1.00000000</i>
   <i name="ALDAC">      1.00000000</i>
   <i name="AGGAC">      1.00000000</i>
   <i type="int" name="NKREDX">     1</i>
   <i type="int" name="NKREDY">     1</i>
   <i type="int" name="NKREDZ">     1</i>
   <i type="logical" name="SHIFTRED"> F  </i>
   <i type="logical" name="ODDONLY"> F  </i>
   <i type="logical" name="EVENONLY"> F  </i>
   <i type="int" name="LMAXFOCK">     0</i>
   <i type="int" name="NMAXFOCKAE">     0</i>
   <i type="logical" name="LFOCKAEDFT"> F  </i>
   <i name="HFSCREEN">      0.00000000</i>
   <i name="HFSCREENC">      0.00000000</i>
   <i type="int" name="NBANDSGWLOW">     0</i>
  </separator>
  <separator name="vdW DFT" >
   <i type="logical" name="LUSE_VDW"> F  </i>
   <i name="Zab_VDW">     -0.84910000</i>
   <i name="PARAM1">      0.12340000</i>
   <i name="PARAM2">      1.00000000</i>
   <i name="PARAM3">      0.00000000</i>
  </separator>
  <separator name="model GW" >
   <i type="int" name="MODEL_GW">     0</i>
   <i name="MODEL_EPS0">     13.40542284</i>
   <i name="MODEL_ALPHA">      1.00000000</i>
  </separator>
  <separator name="linear response parameters" >
   <i type="logical" name="LEPSILON"> F  </i>
   <i type="logical" name="LRPA"> F  </i>
   <i type="logical" name="LNABLA"> F  </i>
   <i type="logical" name="LVEL"> F  </i>
   <i type="int" name="KINTER">     0</i>
   <i name="CSHIFT">      0.10000000</i>
   <i name="OMEGAMAX">     -1.00000000</i>
   <i name="DEG_THRESHOLD">      0.00200000</i>
   <i name="RTIME">     -0.10000000</i>
   <i name="WPLASMAI">      0.00000000</i>
   <v name="DFIELD">      0.00000000      0.00000000      0.00000000</v>
   <v name="WPLASMA">      0.00000000      0.00000000      0.00000000      0.00000000      0.00000000      0.00000000      0.00000000      0.00000000      0.00000000</v>
  </separator>
  <separator name="orbital magnetization" >
   <i type="logical" name="NUCIND"> F  </i>
   <v name="MAGPOS">      0.00000000      0.00000000      0.00000000</v>
   <i type="logical" name="LNICSALL"> T  </i>
   <i type="logical" name="ORBITALMAG"> F  </i>
   <i type="logical" name="LMAGBLOCH"> F  </i>
   <i type="logical" name="LCHIMAG"> F  </i>
   <i type="logical" name="LGAUGE"> T  </i>
   <i type="int" name="MAGATOM">     0</i>
   <v name="MAGDIPOL">      0.00000000      0.00000000      0.00000000</v>
   <v name="AVECCONST">      0.00000000      0.00000000      0.00000000</v>
  </separator>
  <separator name="response functions" >
   <i type="logical" name="LADDER"> F  </i>
   <i type="logical" name="LRPAFORCE"> F  </i>
   <i type="logical" name="LFXC"> F  </i>
   <i type="logical" name="LHARTREE"> T  </i>
   <i type="int" name="IBSE">     0</i>
   <v type="int" name="KPOINT">    -1     0     0     0</v>
   <i type="logical" name="LTCTE"> F  </i>
   <i type="logical" name="LTETE"> F  </i>
   <i type="logical" name="LTRIPLET"> F  </i>
   <i type="logical" name="LFXCEPS"> F  </i>
   <i type="logical" name="LFXHEG"> F  </i>
   <i type="int" name="NATURALO">     2</i>
   <i type="logical" name="L2ORDER"> F  </i>
   <i type="logical" name="LMP2LT"> F  </i>
   <i type="logical" name="LUSEW"> F  </i>
   <i name="ENCUTGW">     -2.00000000</i>
   <i name="ENCUTGWSOFT">     -2.00000000</i>
   <i name="ENCUTLF">     -1.00000000</i>
   <i type="int" name="LMAXMP2">    -1</i>
   <i name="SCISSOR">      0.00000000</i>
   <i type="int" name="NOMEGA">     0</i>
   <i type="int" name="NOMEGAR">     0</i>
   <i type="int" name="NBANDSGW">    -1</i>
   <i type="int" name="NBANDSO">    -1</i>
   <i type="int" name="NBANDSV">    -1</i>
   <i type="int" name="NELM">     1</i>
   <i type="int" name="NELMHF">     1</i>
   <i type="int" name="DIM">     3</i>
   <i type="int" name="ANTIRES">     0</i>
   <i name="OMEGAMAX">    -30.00000000</i>
   <i name="OMEGAMIN">    -30.00000000</i>
   <i name="OMEGATL">   -200.00000000</i>
   <i type="int" name="OMEGAGRID">   140</i>
   <i name="CSHIFT">     -0.10000000</i>
   <i type="logical" name="SELFENERGY"> F  </i>
   <i type="logical" name="LSPECTRAL"> F  </i>
   <i type="logical" name="LSPECTRALGW"> F  </i>
   <i type="logical" name="LSINGLES"> F  </i>
   <i type="logical" name="LFERMIGW"> F  </i>
   <i type="logical" name="ODDONLYGW"> F  </i>
   <i type="logical" name="EVENONLYGW"> F  </i>
   <i type="int" name="NKREDLFX">     1</i>
   <i type="int" name="NKREDLFY">     1</i>
   <i type="int" name="NKREDLFZ">     1</i>
   <i type="int" name="MAXMEM">  2800</i>
   <i type="int" name="TELESCOPE">     0</i>
   <i type="int" name="TAUPAR">     1</i>
   <i type="int" name="OMEGAPAR">    -1</i>
   <i name="LAMBDA">      1.00000000</i>
  </separator>
  <separator name="External order field" >
   <i name="OFIELD_KAPPA">      0.00000000</i>
   <v name="OFIELD_K">      0.00000000      0.00000000      0.00000000</v>
   <i name="OFIELD_Q6_NEAR">      0.00000000</i>
   <i name="OFIELD_Q6_FAR">      0.00000000</i>
   <i name="OFIELD_A">      0.00000000</i>
  </separator>
 </parameters>
 <atominfo>
  <atoms>       2 </atoms>
  <types>       1 </types>
  <array name="atoms" >
   <dimension dim="1">ion</dimension>
   <field type="string">element</field>
   <field type="int">atomtype</field>
   <set>
    <rc><c>Ge</c><c>   1</c></rc>
    <rc><c>Ge</c><c>   1</c></rc>
   </set>
  </array>
  <array name="atomtypes" >
   <dimension dim="1">type</dimension>
   <field type="int">atomspertype</field>
   <field type="string">element</field>
   <field>mass</field>
   <field>valence</field>
   <field type="string">pseudopotential</field>
   <set>
    <rc><c>   2</c><c>Ge</c><c>     72.61000000</c><c>      4.00000000</c><c>  PAW_PBE Ge 05Jan2001                  </c></rc>
   </set>
  </array>
 </atominfo>
 <structure name="initialpos" >
  <crystal>
   <varray name="basis" >
    <v>       0.00000000       2.81650000       2.81650000 </v>
    <v>       2.81650000       0.00000000       2.81650000 </v>
    <v>       2.81650000       2.81650000       0.00000000 </v>
   </varray>
   <i name="volume">     44.68474278 </i>
   <varray name="rec_basis" >
    <v>      -0.17752530       0.17752530       0.17752530 </v>
    <v>       0.17752530      -0.17752530       0.17752530 </v>
    <v>       0.17752530       0.17752530      -0.17752530 </v>
   </varray>
  </crystal>
  <varray name="positions" >
   <v>       0.00000000       0.00000000       0.00000000 </v>
   <v>       0.25000000       0.25000000       0.25000000 </v>
  </varray>
 </structure>
 <calculation>
  <scstep>
   <time name="total">    0.22    0.22</time>
   <energy>
    <i name="alphaZ">     17.10940282 </i>
    <i name="ewald">   -220.32663596 </i>
    <i name="hartreedc">    -12.42928696 </i>
    <i name="XCdc">    -14.98288157 </i>
    <i name="pawpsdc">    176.29039040 </i>
    <i name="pawaedc">   -147.31525009 </i>
    <i name="eentropy">     -0.00050808 </i>
    <i name="bandstr">      2.56497507 </i>
    <i name="atom">    209.99145059 </i>
    <i name="e_fr_energy">     10.90165621 </i>
    <i name="e_wo_entrp">     10.90216429 </i>
    <i name="e_0_energy">     10.90182557 </i>
   </energy>
  </scstep>
  <scstep>
   <time name="total">    0.20    0.21</time>
   <energy>
    <i name="e_fr_energy">     -7.47367099 </i>
    <i name="e_wo_entrp">     -7.47376854 </i>
    <i name="e_0_energy">     -7.47370350 </i>
   </energy>
  </scstep>
  <scstep>
   <time name="total">    0.20    0.20</time>
   <energy>
    <i name="e_fr_energy">     -8.74972450 </i>
    <i name="e_wo_entrp">     -8.74978546 </i>
    <i name="e_0_energy">     -8.74974482 </i>
   </energy>
  </scstep>
  <scstep>
   <time name="total">    0.21    0.21</time>
   <energy>
    <i name="e_fr_energy">     -8.77476818 </i>
    <i name="e_wo_entrp">     -8.77491141 </i>
    <i name="e_0_energy">     -8.77481592 </i>
   </energy>
  </scstep>
  <scstep>
   <time name="total">    0.21    0.21</time>
   <energy>
    <i name="e_fr_energy">     -8.77549453 </i>
    <i name="e_wo_entrp">     -8.77563799 </i>
    <i name="e_0_energy">     -8.77554235 </i>
   </energy>
  </scstep>
  <scstep>
   <time name="total">    0.14    0.14</time>
   <energy>
    <i name="e_fr_energy">     -8.63161625 </i>
    <i name="e_wo_entrp">     -8.63175660 </i>
    <i name="e_0_energy">     -8.63166303 </i>
   </energy>
  </scstep>
  <scstep>
   <time name="total">    0.14    0.14</time>
   <energy>
    <i name="e_fr_energy">     -8.64394440 </i>
    <i name="e_wo_entrp">     -8.64400459 </i>
    <i name="e_0_energy">     -8.64396446 </i>
   </energy>
  </scstep>
  <scstep>
   <time name="total">    0.14    0.15</time>
   <energy>
    <i name="e_fr_energy">     -8.65394793 </i>
    <i name="e_wo_entrp">     -8.65408524 </i>
    <i name="e_0_energy">     -8.65399370 </i>
   </energy>
  </scstep>
  <scstep>
   <time name="total">    0.14    0.14</time>
   <energy>
    <i name="e_fr_energy">     -8.65901045 </i>
    <i name="e_wo_entrp">     -8.65914739 </i>
    <i name="e_0_energy">     -8.65905610 </i>
   </energy>
  </scstep>
  <scstep>
   <time name="total">    0.14    0.14</time>
   <energy>
    <i name="e_fr_energy">     -8.66118084 </i>
    <i name="e_wo_entrp">     -8.66147956 </i>
    <i name="e_0_energy">     -8.66128041 </i>
   </energy>
  </scstep>
  <scstep>
   <time name="total">    0.14    0.14</time>
   <energy>
    <i name="e_fr_energy">     -8.66194881 </i>
    <i name="e_wo_entrp">     -8.66224172 </i>
    <i name="e_0_energy">     -8.66204645 </i>
   </energy>
  </scstep>
  <scstep>
   <time name="total">    0.14    0.14</time>
   <energy>
    <i name="e_fr_energy">     -8.66222180 </i>
    <i name="e_wo_entrp">     -8.66250891 </i>
    <i name="e_0_energy">     -8.66231751 </i>
   </energy>
  </scstep>
  <scstep>
   <time name="total">    0.17    0.17</time>
   <energy>
    <i name="alphaZ">     17.10940282 </i>
    <i name="ewald">   -220.32663596 </i>
    <i name="hartreedc">    -15.79725781 </i>
    <i name="XCdc">    -14.32264674 </i>
    <i name="pawpsdc">    477.11419416 </i>
    <i name="pawaedc">   -448.50741751 </i>
    <i name="eentropy">      0.00028541 </i>
    <i name="bandstr">    -13.92367167 </i>
    <i name="atom">    209.99145059 </i>
    <i name="e_fr_energy">     -8.66229501 </i>
    <i name="e_wo_entrp">     -8.66258042 </i>
    <i name="e_0_energy">     -8.66239015 </i>
   </energy>
  </scstep>
  <structure>
   <crystal>
    <varray name="basis" >
     <v>       0.00000000       2.81650000       2.81650000 </v>
     <v>       2.81650000       0.00000000       2.81650000 </v>
     <v>       2.81650000       2.81650000       0.00000000 </v>
    </varray>
    <i name="volume">     44.68474278 </i>
    <varray name="rec_basis" >
     <v>      -0.17752530       0.17752530       0.17752530 </v>
     <v>       0.17752530      -0.17752530       0.17752530 </v>
     <v>       0.17752530       0.17752530      -0.17752530 </v>
    </varray>
   </crystal>
   <varray name="positions" >
    <v>       0.00000000       0.00000000       0.00000000 </v>
    <v>       0.25000000       0.25000000       0.25000000 </v>
   </varray>
  </structure>
  <varray name="forces" >
   <v>      -0.00000000      -0.00000000      -0.00000000 </v>
   <v>       0.00000000       0.00000000       0.00000000 </v>
  </varray>
  <varray name="stress" >
   <v>      57.38343347      -0.00000000      -0.00000000 </v>
   <v>      -0.00000000      57.38343347      -0.00000000 </v>
   <v>       0.00000000      -0.00000000      57.38343347 </v>
  </varray>
  <energy>
   <i name="e_fr_energy">     -8.66229501 </i>
   <i name="e_wo_entrp">     -8.66239015 </i>
   <i name="e_0_energy">      0.00028541 </i>
  </energy>
  <time name="totalsc">    2.77    2.91</time>
  <eigenvalues>
   <array>
    <dimension dim="1">band</dimension>
    <dimension dim="2">kpoint</dimension>
    <dimension dim="3">spin</dimension>
    <field>eigene</field>
    <field>occ</field>
    <set>
     <set comment="spin 1">
      <set comment="kpoint 1">
       <r>   -8.9523    1.0000 </r>
       <r>    3.9364    1.0000 </r>
       <r>    3.9364    1.0000 </r>
       <r>    3.9364    1.0000 </r>
       <r>    4.1210    0.1283 </r>
       <r>    6.4499    0.0000 </r>
       <r>    6.4499    0.0000 </r>
       <r>    6.4499    0.0000 </r>
       <r>   10.3841    0.0000 </r>
       <r>   13.1998    0.0000 </r>
       <r>   13.1998    0.0000 </r>
       <r>   14.6513    0.0000 </r>
       <r>   14.6513    0.0000 </r>
       <r>   14.6513    0.0000 </r>
       <r>   17.8089    0.0000 </r>
       <r>   28.2831    0.0000 </r>
       <r>   28.2831    0.0000 </r>
       <r>   28.2831    0.0000 </r>
       <r>   29.1128    0.0000 </r>
       <r>   29.1128    0.0000 </r>
       <r>   29.1128    0.0000 </r>
       <r>   29.4815    0.0000 </r>
       <r>   29.4815    0.0000 </r>
       <r>   30.1732    0.0000 </r>
       <r>   30.1732    0.0000 </r>
       <r>   30.1732    0.0000 </r>
       <r>   38.6789    0.0000 </r>
       <r>   39.1268    0.0000 </r>
       <r>   39.1268    0.0000 </r>
       <r>   39.1268    0.0000 </r>
       <r>   41.9585    0.0000 </r>
       <r>   41.9592    0.0000 </r>
       <r>   42.5157    0.0000 </r>
       <r>   42.5160    0.0000 </r>
       <r>   43.4753    0.0000 </r>
       <r>   43.6937    0.0000 </r>
       <r>   43.6959    0.0000 </r>
       <r>   43.6985    0.0000 </r>
       <r>   44.1012    0.0000 </r>
       <r>   44.1019    0.0000 </r>
       <r>   44.1050    0.0000 </r>
       <r>   44.9041    0.0000 </r>
       <r>   44.9094    0.0000 </r>
       <r>   44.9146    0.0000 </r>
       <r>   45.4089    0.0000 </r>
       <r>   45.4123    0.0000 </r>
       <r>   45.4196    0.0000 </r>
       <r>   46.5191    0.0000 </r>
       <r>   46.5274    0.0000 </r>
       <r>   46.5372    0.0000 </r>
       <r>   50.2338    0.0000 </r>
       <r>   51.9776    0.0000 </r>
       <r>   52.1497    0.0000 </r>
       <r>   52.2945    0.0000 </r>
      </set>
      <set comment="kpoint 2">
       <r>   -8.2020    1.0000 </r>
       <r>   -0.8093    1.0000 </r>
       <r>    3.0281    1.0000 </r>
       <r>    3.0281    1.0000 </r>
       <r>    4.6449   -0.0000 </r>
       <r>    7.5426    0.0000 </r>
       <r>    7.5426    0.0000 </r>
       <r>    9.6459    0.0000 </r>
       <r>   11.9434    0.0000 </r>
       <r>   12.1297    0.0000 </r>
       <r>   12.1297    0.0000 </r>
       <r>   14.8535    0.0000 </r>
       <r>   18.7489    0.0000 </r>
       <r>   18.7489    0.0000 </r>
       <r>   21.7113    0.0000 </r>
       <r>   21.7701    0.0000 </r>
       <r>   21.7701    0.0000 </r>
       <r>   22.5813    0.0000 </r>
       <r>   29.3365    0.0000 </r>
       <r>   29.3365    0.0000 </r>
       <r>   29.9866    0.0000 </r>
       <r>   29.9866    0.0000 </r>
       <r>   30.7926    0.0000 </r>
       <r>   31.8914    0.0000 </r>
       <r>   32.8075    0.0000 </r>
       <r>   33.9281    0.0000 </r>
       <r>   33.9281    0.0000 </r>
       <r>   36.9089    0.0000 </r>
       <r>   36.9089    0.0000 </r>
       <r>   37.2228    0.0000 </r>
       <r>   37.2228    0.0000 </r>
       <r>   39.1169    0.0000 </r>
       <r>   39.4716    0.0000 </r>
       <r>   39.4716    0.0000 </r>
       <r>   39.8742    0.0000 </r>
       <r>   40.3041    0.0000 </r>
       <r>   42.6983    0.0000 </r>
       <r>   42.6984    0.0000 </r>
       <r>   43.5368    0.0000 </r>
       <r>   44.4950    0.0000 </r>
       <r>   44.7503    0.0000 </r>
       <r>   44.7507    0.0000 </r>
       <r>   45.0266    0.0000 </r>
       <r>   48.8252    0.0000 </r>
       <r>   48.8315    0.0000 </r>
       <r>   49.9219    0.0000 </r>
       <r>   49.9283    0.0000 </r>
       <r>   50.9666    0.0000 </r>
       <r>   51.0764    0.0000 </r>
       <r>   51.0832    0.0000 </r>
       <r>   52.5082    0.0000 </r>
       <r>   53.6613    0.0000 </r>
       <r>   56.7822    0.0000 </r>
       <r>   57.1849    0.0000 </r>
      </set>
      <set comment="kpoint 3">
       <r>   -6.8351    1.0000 </r>
       <r>   -3.7432    1.0000 </r>
       <r>    2.4958    1.0000 </r>
       <r>    2.4958    1.0000 </r>
       <r>    4.1527   -0.0321 </r>
       <r>    7.6342    0.0000 </r>
       <r>    7.6342    0.0000 </r>
       <r>   11.0265    0.0000 </r>
       <r>   14.5606    0.0000 </r>
       <r>   15.0976    0.0000 </r>
       <r>   15.0976    0.0000 </r>
       <r>   15.1909    0.0000 </r>
       <r>   16.0710    0.0000 </r>
       <r>   16.0710    0.0000 </r>
       <r>   22.7084    0.0000 </r>
       <r>   23.8917    0.0000 </r>
       <r>   25.3668    0.0000 </r>
       <r>   25.3668    0.0000 </r>
       <r>   25.5000    0.0000 </r>
       <r>   25.5000    0.0000 </r>
       <r>   28.8468    0.0000 </r>
       <r>   30.0308    0.0000 </r>
       <r>   30.2837    0.0000 </r>
       <r>   30.2837    0.0000 </r>
       <r>   31.0129    0.0000 </r>
       <r>   31.0129    0.0000 </r>
       <r>   31.6987    0.0000 </r>
       <r>   35.2060    0.0000 </r>
       <r>   35.2060    0.0000 </r>
       <r>   35.3329    0.0000 </r>
       <r>   35.3329    0.0000 </r>
       <r>   36.1537    0.0000 </r>
       <r>   37.2506    0.0000 </r>
       <r>   37.4327    0.0000 </r>
       <r>   42.5203    0.0000 </r>
       <r>   42.5203    0.0000 </r>
       <r>   42.7949    0.0000 </r>
       <r>   43.7775    0.0000 </r>
       <r>   43.7776    0.0000 </r>
       <r>   44.7338    0.0000 </r>
       <r>   48.1149    0.0000 </r>
       <r>   48.1160    0.0000 </r>
       <r>   49.4687    0.0000 </r>
       <r>   49.4691    0.0000 </r>
       <r>   50.2792    0.0000 </r>
       <r>   52.4605    0.0000 </r>
       <r>   52.9090    0.0000 </r>
       <r>   53.0152    0.0000 </r>
       <r>   54.3355    0.0000 </r>
       <r>   54.5442    0.0000 </r>
       <r>   55.2894    0.0000 </r>
       <r>   56.1313    0.0000 </r>
       <r>   57.2779    0.0000 </r>
       <r>   59.3298    0.0000 </r>
      </set>
      <set comment="kpoint 4">
       <r>   -7.9308    1.0000 </r>
       <r>   -0.7726    1.0000 </r>
       <r>    1.8433    1.0000 </r>
       <r>    1.8433    1.0000 </r>
       <r>    4.9051   -0.0000 </r>
       <r>    6.6914    0.0000 </r>
       <r>    9.7855    0.0000 </r>
       <r>    9.7855    0.0000 </r>
       <r>   11.0506    0.0000 </r>
       <r>   14.1438    0.0000 </r>
       <r>   14.2351    0.0000 </r>
       <r>   16.7508    0.0000 </r>
       <r>   16.7508    0.0000 </r>
       <r>   17.4492    0.0000 </r>
       <r>   21.3785    0.0000 </r>
       <r>   21.3785    0.0000 </r>
       <r>   22.5766    0.0000 </r>
       <r>   23.4817    0.0000 </r>
       <r>   24.4349    0.0000 </r>
       <r>   29.2927    0.0000 </r>
       <r>   30.5613    0.0000 </r>
       <r>   30.5613    0.0000 </r>
       <r>   30.8207    0.0000 </r>
       <r>   31.8786    0.0000 </r>
       <r>   31.8786    0.0000 </r>
       <r>   32.8677    0.0000 </r>
       <r>   33.3698    0.0000 </r>
       <r>   36.7569    0.0000 </r>
       <r>   37.8469    0.0000 </r>
       <r>   37.9128    0.0000 </r>
       <r>   37.9128    0.0000 </r>
       <r>   38.8218    0.0000 </r>
       <r>   38.8218    0.0000 </r>
       <r>   39.8789    0.0000 </r>
       <r>   41.2236    0.0000 </r>
       <r>   41.2236    0.0000 </r>
       <r>   41.7352    0.0000 </r>
       <r>   41.8779    0.0000 </r>
       <r>   42.6753    0.0000 </r>
       <r>   44.8034    0.0000 </r>
       <r>   45.1071    0.0000 </r>
       <r>   45.1073    0.0000 </r>
       <r>   46.7801    0.0000 </r>
       <r>   49.0147    0.0000 </r>
       <r>   49.0168    0.0000 </r>
       <r>   49.2432    0.0000 </r>
       <r>   49.5621    0.0000 </r>
       <r>   50.6889    0.0000 </r>
       <r>   50.6980    0.0000 </r>
       <r>   51.0585    0.0000 </r>
       <r>   52.2691    0.0000 </r>
       <r>   52.3555    0.0000 </r>
       <r>   55.8300    0.0000 </r>
       <r>   57.0246    0.0000 </r>
      </set>
      <set comment="kpoint 5">
       <r>   -6.4202    1.0000 </r>
       <r>   -3.4973    1.0000 </r>
       <r>    0.1268    1.0000 </r>
       <r>    1.4732    1.0000 </r>
       <r>    5.3178   -0.0000 </r>
       <r>    8.1729    0.0000 </r>
       <r>    9.3809    0.0000 </r>
       <r>   10.1327    0.0000 </r>
       <r>   13.9519    0.0000 </r>
       <r>   15.1792    0.0000 </r>
       <r>   15.7712    0.0000 </r>
       <r>   16.2301    0.0000 </r>
       <r>   17.0631    0.0000 </r>
       <r>   20.5937    0.0000 </r>
       <r>   21.6143    0.0000 </r>
       <r>   22.6331    0.0000 </r>
       <r>   23.1578    0.0000 </r>
       <r>   23.3597    0.0000 </r>
       <r>   23.7034    0.0000 </r>
       <r>   25.5724    0.0000 </r>
       <r>   27.6862    0.0000 </r>
       <r>   28.1842    0.0000 </r>
       <r>   28.8808    0.0000 </r>
       <r>   30.4645    0.0000 </r>
       <r>   31.5008    0.0000 </r>
       <r>   31.8278    0.0000 </r>
       <r>   32.1514    0.0000 </r>
       <r>   33.1803    0.0000 </r>
       <r>   34.7730    0.0000 </r>
       <r>   36.4621    0.0000 </r>
       <r>   37.0070    0.0000 </r>
       <r>   38.5454    0.0000 </r>
       <r>   39.2085    0.0000 </r>
       <r>   39.3248    0.0000 </r>
       <r>   39.7949    0.0000 </r>
       <r>   42.5385    0.0000 </r>
       <r>   44.5003    0.0000 </r>
       <r>   45.0642    0.0000 </r>
       <r>   45.7920    0.0000 </r>
       <r>   45.9566    0.0000 </r>
       <r>   46.1879    0.0000 </r>
       <r>   47.2113    0.0000 </r>
       <r>   47.4898    0.0000 </r>
       <r>   49.0420    0.0000 </r>
       <r>   49.7170    0.0000 </r>
       <r>   50.2763    0.0000 </r>
       <r>   51.4753    0.0000 </r>
       <r>   51.8798    0.0000 </r>
       <r>   53.8328    0.0000 </r>
       <r>   54.6717    0.0000 </r>
       <r>   55.7561    0.0000 </r>
       <r>   56.1023    0.0000 </r>
       <r>   56.7597    0.0000 </r>
       <r>   58.9251    0.0000 </r>
      </set>
      <set comment="kpoint 6">
       <r>   -7.0442    1.0000 </r>
       <r>   -2.6259    1.0000 </r>
       <r>   -0.0210    1.0000 </r>
       <r>    2.3916    1.0000 </r>
       <r>    5.9019    0.0000 </r>
       <r>    8.7100    0.0000 </r>
       <r>    9.0829    0.0000 </r>
       <r>    9.2575    0.0000 </r>
       <r>   11.4847    0.0000 </r>
       <r>   13.4043    0.0000 </r>
       <r>   15.8748    0.0000 </r>
       <r>   16.4958    0.0000 </r>
       <r>   17.5868    0.0000 </r>
       <r>   20.2091    0.0000 </r>
       <r>   21.6889    0.0000 </r>
       <r>   22.4423    0.0000 </r>
       <r>   22.6288    0.0000 </r>
       <r>   24.5868    0.0000 </r>
       <r>   25.1802    0.0000 </r>
       <r>   27.0789    0.0000 </r>
       <r>   27.7076    0.0000 </r>
       <r>   28.6918    0.0000 </r>
       <r>   29.5426    0.0000 </r>
       <r>   29.5556    0.0000 </r>
       <r>   31.2784    0.0000 </r>
       <r>   31.5051    0.0000 </r>
       <r>   33.2852    0.0000 </r>
       <r>   33.4941    0.0000 </r>
       <r>   37.3537    0.0000 </r>
       <r>   37.7602    0.0000 </r>
       <r>   37.9626    0.0000 </r>
       <r>   38.2489    0.0000 </r>
       <r>   39.0278    0.0000 </r>
       <r>   39.3866    0.0000 </r>
       <r>   39.4657    0.0000 </r>
       <r>   39.7324    0.0000 </r>
       <r>   39.8954    0.0000 </r>
       <r>   43.9514    0.0000 </r>
       <r>   45.1858    0.0000 </r>
       <r>   46.4845    0.0000 </r>
       <r>   46.9380    0.0000 </r>
       <r>   47.0484    0.0000 </r>
       <r>   49.3930    0.0000 </r>
       <r>   50.1102    0.0000 </r>
       <r>   50.8885    0.0000 </r>
       <r>   51.3975    0.0000 </r>
       <r>   51.4297    0.0000 </r>
       <r>   52.3174    0.0000 </r>
       <r>   52.6179    0.0000 </r>
       <r>   53.9155    0.0000 </r>
       <r>   54.0438    0.0000 </r>
       <r>   56.2549    0.0000 </r>
       <r>   57.3055    0.0000 </r>
       <r>   58.0634    0.0000 </r>
      </set>
      <set comment="kpoint 7">
       <r>   -5.0154    1.0000 </r>
       <r>   -5.0154    1.0000 </r>
       <r>    0.7880    1.0000 </r>
       <r>    0.7880    1.0000 </r>
       <r>    4.6348   -0.0000 </r>
       <r>    4.6348   -0.0000 </r>
       <r>   13.5102    0.0000 </r>
       <r>   13.5102    0.0000 </r>
       <r>   15.6683    0.0000 </r>
       <r>   15.6683    0.0000 </r>
       <r>   16.4924    0.0000 </r>
       <r>   16.4924    0.0000 </r>
       <r>   17.3553    0.0000 </r>
       <r>   17.3553    0.0000 </r>
       <r>   22.8983    0.0000 </r>
       <r>   22.8983    0.0000 </r>
       <r>   22.9074    0.0000 </r>
       <r>   22.9074    0.0000 </r>
       <r>   22.9284    0.0000 </r>
       <r>   22.9284    0.0000 </r>
       <r>   23.6072    0.0000 </r>
       <r>   23.6072    0.0000 </r>
       <r>   30.8555    0.0000 </r>
       <r>   30.8555    0.0000 </r>
       <r>   32.2957    0.0000 </r>
       <r>   32.2957    0.0000 </r>
       <r>   35.7559    0.0000 </r>
       <r>   35.7559    0.0000 </r>
       <r>   36.4768    0.0000 </r>
       <r>   36.4768    0.0000 </r>
       <r>   38.5674    0.0000 </r>
       <r>   38.5674    0.0000 </r>
       <r>   38.7870    0.0000 </r>
       <r>   38.7870    0.0000 </r>
       <r>   40.1036    0.0000 </r>
       <r>   40.1036    0.0000 </r>
       <r>   42.5420    0.0000 </r>
       <r>   42.5420    0.0000 </r>
       <r>   42.9449    0.0000 </r>
       <r>   42.9450    0.0000 </r>
       <r>   47.0086    0.0000 </r>
       <r>   47.0088    0.0000 </r>
       <r>   49.8611    0.0000 </r>
       <r>   49.8656    0.0000 </r>
       <r>   50.3233    0.0000 </r>
       <r>   50.3480    0.0000 </r>
       <r>   55.2416    0.0000 </r>
       <r>   55.4557    0.0000 </r>
       <r>   56.2369    0.0000 </r>
       <r>   57.0268    0.0000 </r>
       <r>   57.1850    0.0000 </r>
       <r>   57.5012    0.0000 </r>
       <r>   57.9369    0.0000 </r>
       <r>   58.4151    0.0000 </r>
      </set>
      <set comment="kpoint 8">
       <r>   -4.9127    1.0000 </r>
       <r>   -4.9127    1.0000 </r>
       <r>   -0.0661    1.0000 </r>
       <r>   -0.0661    1.0000 </r>
       <r>    8.2852    0.0000 </r>
       <r>    8.2852    0.0000 </r>
       <r>    8.6202    0.0000 </r>
       <r>    8.6202    0.0000 </r>
       <r>   14.9453    0.0000 </r>
       <r>   14.9453    0.0000 </r>
       <r>   16.8221    0.0000 </r>
       <r>   16.8221    0.0000 </r>
       <r>   20.2230    0.0000 </r>
       <r>   20.2230    0.0000 </r>
       <r>   21.0786    0.0000 </r>
       <r>   21.0786    0.0000 </r>
       <r>   23.3846    0.0000 </r>
       <r>   23.3846    0.0000 </r>
       <r>   24.6284    0.0000 </r>
       <r>   24.6284    0.0000 </r>
       <r>   27.0922    0.0000 </r>
       <r>   27.0922    0.0000 </r>
       <r>   29.7686    0.0000 </r>
       <r>   29.7686    0.0000 </r>
       <r>   29.9036    0.0000 </r>
       <r>   29.9036    0.0000 </r>
       <r>   30.5631    0.0000 </r>
       <r>   30.5631    0.0000 </r>
       <r>   36.5007    0.0000 </r>
       <r>   36.5007    0.0000 </r>
       <r>   38.1471    0.0000 </r>
       <r>   38.1471    0.0000 </r>
       <r>   40.1276    0.0000 </r>
       <r>   40.1276    0.0000 </r>
       <r>   41.8800    0.0000 </r>
       <r>   41.8800    0.0000 </r>
       <r>   44.9152    0.0000 </r>
       <r>   44.9152    0.0000 </r>
       <r>   45.9079    0.0000 </r>
       <r>   45.9085    0.0000 </r>
       <r>   48.0608    0.0000 </r>
       <r>   48.0621    0.0000 </r>
       <r>   48.2756    0.0000 </r>
       <r>   48.2782    0.0000 </r>
       <r>   49.5041    0.0000 </r>
       <r>   49.5096    0.0000 </r>
       <r>   51.8692    0.0000 </r>
       <r>   51.8922    0.0000 </r>
       <r>   55.6913    0.0000 </r>
       <r>   55.7205    0.0000 </r>
       <r>   55.7706    0.0000 </r>
       <r>   57.1019    0.0000 </r>
       <r>   57.7687    0.0000 </r>
       <r>   58.6455    0.0000 </r>
      </set>
     </set>
     <set comment="spin 2">
      <set comment="kpoint 1">
       <r>   -8.9523    1.0000 </r>
       <r>    3.9364    1.0000 </r>
       <r>    3.9364    1.0000 </r>
       <r>    3.9364    1.0000 </r>
       <r>    4.1210    0.1284 </r>
       <r>    6.4499    0.0000 </r>
       <r>    6.4499    0.0000 </r>
       <r>    6.4499    0.0000 </r>
       <r>   10.3842    0.0000 </r>
       <r>   13.1998    0.0000 </r>
       <r>   13.1998    0.0000 </r>
       <r>   14.6513    0.0000 </r>
       <r>   14.6513    0.0000 </r>
       <r>   14.6513    0.0000 </r>
       <r>   17.8090    0.0000 </r>
       <r>   28.2831    0.0000 </r>
       <r>   28.2831    0.0000 </r>
       <r>   28.2831    0.0000 </r>
       <r>   29.1128    0.0000 </r>
       <r>   29.1128    0.0000 </r>
       <r>   29.1128    0.0000 </r>
       <r>   29.4814    0.0000 </r>
       <r>   29.4814    0.0000 </r>
       <r>   30.1732    0.0000 </r>
       <r>   30.1732    0.0000 </r>
       <r>   30.1732    0.0000 </r>
       <r>   38.6790    0.0000 </r>
       <r>   39.1268    0.0000 </r>
       <r>   39.1268    0.0000 </r>
       <r>   39.1268    0.0000 </r>
       <r>   41.9585    0.0000 </r>
       <r>   41.9588    0.0000 </r>
       <r>   42.5158    0.0000 </r>
       <r>   42.5166    0.0000 </r>
       <r>   43.4754    0.0000 </r>
       <r>   43.6937    0.0000 </r>
       <r>   43.6940    0.0000 </r>
       <r>   43.6976    0.0000 </r>
       <r>   44.1013    0.0000 </r>
       <r>   44.1019    0.0000 </r>
       <r>   44.1059    0.0000 </r>
       <r>   44.9043    0.0000 </r>
       <r>   44.9053    0.0000 </r>
       <r>   44.9262    0.0000 </r>
       <r>   45.4068    0.0000 </r>
       <r>   45.4092    0.0000 </r>
       <r>   45.4186    0.0000 </r>
       <r>   46.5201    0.0000 </r>
       <r>   46.5270    0.0000 </r>
       <r>   46.5800    0.0000 </r>
       <r>   50.4207    0.0000 </r>
       <r>   51.9588    0.0000 </r>
       <r>   52.0555    0.0000 </r>
       <r>   52.2596    0.0000 </r>
      </set>
      <set comment="kpoint 2">
       <r>   -8.2020    1.0000 </r>
       <r>   -0.8093    1.0000 </r>
       <r>    3.0281    1.0000 </r>
       <r>    3.0281    1.0000 </r>
       <r>    4.6449   -0.0000 </r>
       <r>    7.5426    0.0000 </r>
       <r>    7.5426    0.0000 </r>
       <r>    9.6459    0.0000 </r>
       <r>   11.9434    0.0000 </r>
       <r>   12.1297    0.0000 </r>
       <r>   12.1297    0.0000 </r>
       <r>   14.8535    0.0000 </r>
       <r>   18.7488    0.0000 </r>
       <r>   18.7488    0.0000 </r>
       <r>   21.7114    0.0000 </r>
       <r>   21.7701    0.0000 </r>
       <r>   21.7701    0.0000 </r>
       <r>   22.5813    0.0000 </r>
       <r>   29.3365    0.0000 </r>
       <r>   29.3365    0.0000 </r>
       <r>   29.9866    0.0000 </r>
       <r>   29.9866    0.0000 </r>
       <r>   30.7926    0.0000 </r>
       <r>   31.8914    0.0000 </r>
       <r>   32.8075    0.0000 </r>
       <r>   33.9281    0.0000 </r>
       <r>   33.9281    0.0000 </r>
       <r>   36.9089    0.0000 </r>
       <r>   36.9089    0.0000 </r>
       <r>   37.2228    0.0000 </r>
       <r>   37.2228    0.0000 </r>
       <r>   39.1169    0.0000 </r>
       <r>   39.4716    0.0000 </r>
       <r>   39.4716    0.0000 </r>
       <r>   39.8742    0.0000 </r>
       <r>   40.3041    0.0000 </r>
       <r>   42.6983    0.0000 </r>
       <r>   42.6986    0.0000 </r>
       <r>   43.5370    0.0000 </r>
       <r>   44.4955    0.0000 </r>
       <r>   44.7503    0.0000 </r>
       <r>   44.7508    0.0000 </r>
       <r>   45.0274    0.0000 </r>
       <r>   48.8276    0.0000 </r>
       <r>   48.8325    0.0000 </r>
       <r>   49.9232    0.0000 </r>
       <r>   50.0349    0.0000 </r>
       <r>   51.0465    0.0000 </r>
       <r>   51.0688    0.0000 </r>
       <r>   51.1020    0.0000 </r>
       <r>   52.5488    0.0000 </r>
       <r>   53.7500    0.0000 </r>
       <r>   56.9854    0.0000 </r>
       <r>   57.3794    0.0000 </r>
      </set>
      <set comment="kpoint 3">
       <r>   -6.8351    1.0000 </r>
       <r>   -3.7432    1.0000 </r>
       <r>    2.4958    1.0000 </r>
       <r>    2.4958    1.0000 </r>
       <r>    4.1527   -0.0321 </r>
       <r>    7.6342    0.0000 </r>
       <r>    7.6342    0.0000 </r>
       <r>   11.0265    0.0000 </r>
       <r>   14.5607    0.0000 </r>
       <r>   15.0976    0.0000 </r>
       <r>   15.0976    0.0000 </r>
       <r>   15.1909    0.0000 </r>
       <r>   16.0710    0.0000 </r>
       <r>   16.0710    0.0000 </r>
       <r>   22.7084    0.0000 </r>
       <r>   23.8918    0.0000 </r>
       <r>   25.3668    0.0000 </r>
       <r>   25.3668    0.0000 </r>
       <r>   25.5000    0.0000 </r>
       <r>   25.5000    0.0000 </r>
       <r>   28.8468    0.0000 </r>
       <r>   30.0308    0.0000 </r>
       <r>   30.2837    0.0000 </r>
       <r>   30.2837    0.0000 </r>
       <r>   31.0129    0.0000 </r>
       <r>   31.0129    0.0000 </r>
       <r>   31.6987    0.0000 </r>
       <r>   35.2061    0.0000 </r>
       <r>   35.2061    0.0000 </r>
       <r>   35.3329    0.0000 </r>
       <r>   35.3329    0.0000 </r>
       <r>   36.1537    0.0000 </r>
       <r>   37.2506    0.0000 </r>
       <r>   37.4328    0.0000 </r>
       <r>   42.5203    0.0000 </r>
       <r>   42.5203    0.0000 </r>
       <r>   42.7949    0.0000 </r>
       <r>   43.7775    0.0000 </r>
       <r>   43.7775    0.0000 </r>
       <r>   44.7337    0.0000 </r>
       <r>   48.1149    0.0000 </r>
       <r>   48.1163    0.0000 </r>
       <r>   49.4683    0.0000 </r>
       <r>   49.4728    0.0000 </r>
       <r>   50.2773    0.0000 </r>
       <r>   52.4629    0.0000 </r>
       <r>   52.9051    0.0000 </r>
       <r>   52.9662    0.0000 </r>
       <r>   54.3502    0.0000 </r>
       <r>   54.3668    0.0000 </r>
       <r>   55.3968    0.0000 </r>
       <r>   56.1559    0.0000 </r>
       <r>   56.5082    0.0000 </r>
       <r>   58.4865    0.0000 </r>
      </set>
      <set comment="kpoint 4">
       <r>   -7.9308    1.0000 </r>
       <r>   -0.7726    1.0000 </r>
       <r>    1.8433    1.0000 </r>
       <r>    1.8433    1.0000 </r>
       <r>    4.9051   -0.0000 </r>
       <r>    6.6914    0.0000 </r>
       <r>    9.7855    0.0000 </r>
       <r>    9.7855    0.0000 </r>
       <r>   11.0506    0.0000 </r>
       <r>   14.1438    0.0000 </r>
       <r>   14.2351    0.0000 </r>
       <r>   16.7508    0.0000 </r>
       <r>   16.7508    0.0000 </r>
       <r>   17.4492    0.0000 </r>
       <r>   21.3785    0.0000 </r>
       <r>   21.3785    0.0000 </r>
       <r>   22.5765    0.0000 </r>
       <r>   23.4817    0.0000 </r>
       <r>   24.4350    0.0000 </r>
       <r>   29.2927    0.0000 </r>
       <r>   30.5613    0.0000 </r>
       <r>   30.5613    0.0000 </r>
       <r>   30.8207    0.0000 </r>
       <r>   31.8786    0.0000 </r>
       <r>   31.8786    0.0000 </r>
       <r>   32.8677    0.0000 </r>
       <r>   33.3698    0.0000 </r>
       <r>   36.7569    0.0000 </r>
       <r>   37.8469    0.0000 </r>
       <r>   37.9128    0.0000 </r>
       <r>   37.9128    0.0000 </r>
       <r>   38.8218    0.0000 </r>
       <r>   38.8218    0.0000 </r>
       <r>   39.8789    0.0000 </r>
       <r>   41.2236    0.0000 </r>
       <r>   41.2236    0.0000 </r>
       <r>   41.7352    0.0000 </r>
       <r>   41.8779    0.0000 </r>
       <r>   42.6753    0.0000 </r>
       <r>   44.8034    0.0000 </r>
       <r>   45.1072    0.0000 </r>
       <r>   45.1073    0.0000 </r>
       <r>   46.7799    0.0000 </r>
       <r>   49.0146    0.0000 </r>
       <r>   49.0234    0.0000 </r>
       <r>   49.2430    0.0000 </r>
       <r>   49.5636    0.0000 </r>
       <r>   50.6856    0.0000 </r>
       <r>   50.7054    0.0000 </r>
       <r>   51.0593    0.0000 </r>
       <r>   52.2281    0.0000 </r>
       <r>   52.3993    0.0000 </r>
       <r>   55.7620    0.0000 </r>
       <r>   57.3627    0.0000 </r>
      </set>
      <set comment="kpoint 5">
       <r>   -6.4202    1.0000 </r>
       <r>   -3.4973    1.0000 </r>
       <r>    0.1268    1.0000 </r>
       <r>    1.4732    1.0000 </r>
       <r>    5.3178   -0.0000 </r>
       <r>    8.1729    0.0000 </r>
       <r>    9.3810    0.0000 </r>
       <r>   10.1327    0.0000 </r>
       <r>   13.9519    0.0000 </r>
       <r>   15.1792    0.0000 </r>
       <r>   15.7712    0.0000 </r>
       <r>   16.2301    0.0000 </r>
       <r>   17.0631    0.0000 </r>
       <r>   20.5937    0.0000 </r>
       <r>   21.6143    0.0000 </r>
       <r>   22.6331    0.0000 </r>
       <r>   23.1578    0.0000 </r>
       <r>   23.3597    0.0000 </r>
       <r>   23.7034    0.0000 </r>
       <r>   25.5724    0.0000 </r>
       <r>   27.6862    0.0000 </r>
       <r>   28.1842    0.0000 </r>
       <r>   28.8808    0.0000 </r>
       <r>   30.4646    0.0000 </r>
       <r>   31.5008    0.0000 </r>
       <r>   31.8278    0.0000 </r>
       <r>   32.1515    0.0000 </r>
       <r>   33.1803    0.0000 </r>
       <r>   34.7730    0.0000 </r>
       <r>   36.4621    0.0000 </r>
       <r>   37.0070    0.0000 </r>
       <r>   38.5454    0.0000 </r>
       <r>   39.2085    0.0000 </r>
       <r>   39.3248    0.0000 </r>
       <r>   39.7949    0.0000 </r>
       <r>   42.5385    0.0000 </r>
       <r>   44.5003    0.0000 </r>
       <r>   45.0642    0.0000 </r>
       <r>   45.7919    0.0000 </r>
       <r>   45.9567    0.0000 </r>
       <r>   46.1877    0.0000 </r>
       <r>   47.2114    0.0000 </r>
       <r>   47.4897    0.0000 </r>
       <r>   49.0417    0.0000 </r>
       <r>   49.7125    0.0000 </r>
       <r>   50.2804    0.0000 </r>
       <r>   51.4794    0.0000 </r>
       <r>   51.8730    0.0000 </r>
       <r>   53.8591    0.0000 </r>
       <r>   54.7958    0.0000 </r>
       <r>   55.7342    0.0000 </r>
       <r>   56.0258    0.0000 </r>
       <r>   57.3234    0.0000 </r>
       <r>   58.7968    0.0000 </r>
      </set>
      <set comment="kpoint 6">
       <r>   -7.0442    1.0000 </r>
       <r>   -2.6259    1.0000 </r>
       <r>   -0.0210    1.0000 </r>
       <r>    2.3916    1.0000 </r>
       <r>    5.9019    0.0000 </r>
       <r>    8.7100    0.0000 </r>
       <r>    9.0829    0.0000 </r>
       <r>    9.2575    0.0000 </r>
       <r>   11.4847    0.0000 </r>
       <r>   13.4043    0.0000 </r>
       <r>   15.8749    0.0000 </r>
       <r>   16.4958    0.0000 </r>
       <r>   17.5868    0.0000 </r>
       <r>   20.2091    0.0000 </r>
       <r>   21.6889    0.0000 </r>
       <r>   22.4423    0.0000 </r>
       <r>   22.6288    0.0000 </r>
       <r>   24.5868    0.0000 </r>
       <r>   25.1802    0.0000 </r>
       <r>   27.0790    0.0000 </r>
       <r>   27.7077    0.0000 </r>
       <r>   28.6918    0.0000 </r>
       <r>   29.5426    0.0000 </r>
       <r>   29.5556    0.0000 </r>
       <r>   31.2784    0.0000 </r>
       <r>   31.5051    0.0000 </r>
       <r>   33.2853    0.0000 </r>
       <r>   33.4941    0.0000 </r>
       <r>   37.3537    0.0000 </r>
       <r>   37.7602    0.0000 </r>
       <r>   37.9626    0.0000 </r>
       <r>   38.2489    0.0000 </r>
       <r>   39.0278    0.0000 </r>
       <r>   39.3866    0.0000 </r>
       <r>   39.4657    0.0000 </r>
       <r>   39.7325    0.0000 </r>
       <r>   39.8954    0.0000 </r>
       <r>   43.9514    0.0000 </r>
       <r>   45.1857    0.0000 </r>
       <r>   46.4844    0.0000 </r>
       <r>   46.9382    0.0000 </r>
       <r>   47.0484    0.0000 </r>
       <r>   49.3916    0.0000 </r>
       <r>   50.1131    0.0000 </r>
       <r>   50.8907    0.0000 </r>
       <r>   51.3755    0.0000 </r>
       <r>   51.4312    0.0000 </r>
       <r>   52.2382    0.0000 </r>
       <r>   52.5796    0.0000 </r>
       <r>   53.6272    0.0000 </r>
       <r>   53.9959    0.0000 </r>
       <r>   56.1845    0.0000 </r>
       <r>   56.7934    0.0000 </r>
       <r>   57.9310    0.0000 </r>
      </set>
      <set comment="kpoint 7">
       <r>   -5.0154    1.0000 </r>
       <r>   -5.0154    1.0000 </r>
       <r>    0.7880    1.0000 </r>
       <r>    0.7880    1.0000 </r>
       <r>    4.6348   -0.0000 </r>
       <r>    4.6348   -0.0000 </r>
       <r>   13.5102    0.0000 </r>
       <r>   13.5102    0.0000 </r>
       <r>   15.6683    0.0000 </r>
       <r>   15.6683    0.0000 </r>
       <r>   16.4924    0.0000 </r>
       <r>   16.4924    0.0000 </r>
       <r>   17.3553    0.0000 </r>
       <r>   17.3553    0.0000 </r>
       <r>   22.8983    0.0000 </r>
       <r>   22.8983    0.0000 </r>
       <r>   22.9074    0.0000 </r>
       <r>   22.9074    0.0000 </r>
       <r>   22.9284    0.0000 </r>
       <r>   22.9284    0.0000 </r>
       <r>   23.6072    0.0000 </r>
       <r>   23.6072    0.0000 </r>
       <r>   30.8555    0.0000 </r>
       <r>   30.8555    0.0000 </r>
       <r>   32.2957    0.0000 </r>
       <r>   32.2957    0.0000 </r>
       <r>   35.7559    0.0000 </r>
       <r>   35.7559    0.0000 </r>
       <r>   36.4768    0.0000 </r>
       <r>   36.4768    0.0000 </r>
       <r>   38.5674    0.0000 </r>
       <r>   38.5674    0.0000 </r>
       <r>   38.7870    0.0000 </r>
       <r>   38.7870    0.0000 </r>
       <r>   40.1036    0.0000 </r>
       <r>   40.1036    0.0000 </r>
       <r>   42.5420    0.0000 </r>
       <r>   42.5421    0.0000 </r>
       <r>   42.9450    0.0000 </r>
       <r>   42.9450    0.0000 </r>
       <r>   47.0087    0.0000 </r>
       <r>   47.0098    0.0000 </r>
       <r>   49.8619    0.0000 </r>
       <r>   49.8687    0.0000 </r>
       <r>   50.3235    0.0000 </r>
       <r>   50.3436    0.0000 </r>
       <r>   55.3134    0.0000 </r>
       <r>   55.4977    0.0000 </r>
       <r>   56.2217    0.0000 </r>
       <r>   56.8487    0.0000 </r>
       <r>   57.0290    0.0000 </r>
       <r>   57.4524    0.0000 </r>
       <r>   57.9763    0.0000 </r>
       <r>   58.3179    0.0000 </r>
      </set>
      <set comment="kpoint 8">
       <r>   -4.9127    1.0000 </r>
       <r>   -4.9127    1.0000 </r>
       <r>   -0.0661    1.0000 </r>
       <r>   -0.0661    1.0000 </r>
       <r>    8.2852    0.0000 </r>
       <r>    8.2852    0.0000 </r>
       <r>    8.6202    0.0000 </r>
       <r>    8.6202    0.0000 </r>
       <r>   14.9453    0.0000 </r>
       <r>   14.9453    0.0000 </r>
       <r>   16.8221    0.0000 </r>
       <r>   16.8221    0.0000 </r>
       <r>   20.2231    0.0000 </r>
       <r>   20.2231    0.0000 </r>
       <r>   21.0785    0.0000 </r>
       <r>   21.0785    0.0000 </r>
       <r>   23.3846    0.0000 </r>
       <r>   23.3846    0.0000 </r>
       <r>   24.6284    0.0000 </r>
       <r>   24.6284    0.0000 </r>
       <r>   27.0922    0.0000 </r>
       <r>   27.0922    0.0000 </r>
       <r>   29.7686    0.0000 </r>
       <r>   29.7686    0.0000 </r>
       <r>   29.9036    0.0000 </r>
       <r>   29.9036    0.0000 </r>
       <r>   30.5630    0.0000 </r>
       <r>   30.5630    0.0000 </r>
       <r>   36.5007    0.0000 </r>
       <r>   36.5007    0.0000 </r>
       <r>   38.1471    0.0000 </r>
       <r>   38.1471    0.0000 </r>
       <r>   40.1276    0.0000 </r>
       <r>   40.1276    0.0000 </r>
       <r>   41.8800    0.0000 </r>
       <r>   41.8800    0.0000 </r>
       <r>   44.9152    0.0000 </r>
       <r>   44.9152    0.0000 </r>
       <r>   45.9080    0.0000 </r>
       <r>   45.9081    0.0000 </r>
       <r>   48.0606    0.0000 </r>
       <r>   48.0608    0.0000 </r>
       <r>   48.2757    0.0000 </r>
       <r>   48.2761    0.0000 </r>
       <r>   49.5035    0.0000 </r>
       <r>   49.5049    0.0000 </r>
       <r>   51.8679    0.0000 </r>
       <r>   51.8907    0.0000 </r>
       <r>   55.7161    0.0000 </r>
       <r>   55.8395    0.0000 </r>
       <r>   55.9021    0.0000 </r>
       <r>   56.1851    0.0000 </r>
       <r>   57.3791    0.0000 </r>
       <r>   58.6300    0.0000 </r>
      </set>
     </set>
    </set>
   </array>
  </eigenvalues>
  <separator name="orbital magnetization" >
   <v name="MAGDIPOLOUT">      0.00000000      0.00000000      0.00000000</v>
  </separator>
  <dos>
   <i name="efermi">      3.97846808 </i>
   <total>
    <array>
     <dimension dim="1">gridpoints</dimension>
     <dimension dim="2">spin</dimension>
     <field>energy</field>
     <field>total</field>
     <field>integrated</field>
     <set>
      <set comment="spin 1">
       <r>   -12.3664     0.0000     0.0000 </r>
       <r>   -12.1160     0.0000     0.0000 </r>
       <r>   -11.8657     0.0000     0.0000 </r>
       <r>   -11.6153     0.0000     0.0000 </r>
       <r>   -11.3649     0.0000     0.0000 </r>
       <r>   -11.1146     0.0000     0.0000 </r>
       <r>   -10.8642     0.0000     0.0000 </r>
       <r>   -10.6138     0.0000     0.0000 </r>
       <r>   -10.3635     0.0000     0.0000 </r>
       <r>   -10.1131     0.0000     0.0000 </r>
       <r>    -9.8627     0.0000     0.0000 </r>
       <r>    -9.6124     0.0000     0.0000 </r>
       <r>    -9.3620    -0.0000    -0.0000 </r>
       <r>    -9.1116    -0.0000    -0.0000 </r>
       <r>    -8.8613     0.0633     0.0158 </r>
       <r>    -8.6109    -0.0009     0.0156 </r>
       <r>    -8.3605    -0.0000     0.0156 </r>
       <r>    -8.1101     0.5058     0.1423 </r>
       <r>    -7.8598     0.3795     0.2373 </r>
       <r>    -7.6094    -0.0116     0.2344 </r>
       <r>    -7.3590    -0.0000     0.2344 </r>
       <r>    -7.1087    -0.0261     0.2278 </r>
       <r>    -6.8583     0.8124     0.4312 </r>
       <r>    -6.6079     0.2122     0.4844 </r>
       <r>    -6.3576     1.5507     0.8726 </r>
       <r>    -6.1072    -0.0529     0.8594 </r>
       <r>    -5.8568     0.0000     0.8594 </r>
       <r>    -5.6065    -0.0000     0.8594 </r>
       <r>    -5.3561    -0.0000     0.8594 </r>
       <r>    -5.1057    -0.0053     0.8580 </r>
       <r>    -4.8554     1.1544     1.1471 </r>
       <r>    -4.6050    -0.0258     1.1406 </r>
       <r>    -4.3546    -0.0000     1.1406 </r>
       <r>    -4.1043    -0.0000     1.1406 </r>
       <r>    -3.8539    -0.0009     1.1404 </r>
       <r>    -3.6035     0.2428     1.2012 </r>
       <r>    -3.3532     1.5059     1.5782 </r>
       <r>    -3.1028    -0.0003     1.5781 </r>
       <r>    -2.8524    -0.0000     1.5781 </r>
       <r>    -2.6021     0.6419     1.7388 </r>
       <r>    -2.3517     0.1070     1.7656 </r>
       <r>    -2.1013     0.0000     1.7656 </r>
       <r>    -1.8510     0.0000     1.7656 </r>
       <r>    -1.6006     0.0000     1.7656 </r>
       <r>    -1.3502    -0.0000     1.7656 </r>
       <r>    -1.0999    -0.0000     1.7656 </r>
       <r>    -0.8495    -0.0053     1.7643 </r>
       <r>    -0.5991     0.8790     1.9844 </r>
       <r>    -0.3487    -0.0000     1.9844 </r>
       <r>    -0.0984     0.0262     1.9909 </r>
       <r>     0.1520     2.7771     2.6862 </r>
       <r>     0.4024     0.1923     2.7344 </r>
       <r>     0.6527    -0.0002     2.7343 </r>
       <r>     0.9031     0.3756     2.8284 </r>
       <r>     1.1535    -0.0010     2.8281 </r>
       <r>     1.4038    -0.0483     2.8160 </r>
       <r>     1.6542     1.5461     3.2031 </r>
       <r>     1.9046     0.7755     3.3973 </r>
       <r>     2.1549    -0.0266     3.3906 </r>
       <r>     2.4053     0.5336     3.5242 </r>
       <r>     2.6557     0.7146     3.7031 </r>
       <r>     2.9060    -0.0015     3.7028 </r>
       <r>     3.1564     1.0009     3.9533 </r>
       <r>     3.4068    -0.0009     3.9531 </r>
       <r>     3.6571    -0.0000     3.9531 </r>
       <r>     3.9075     0.0170     3.9574 </r>
       <r>     4.1579     0.3774     4.0519 </r>
       <r>     4.4082     0.1049     4.0781 </r>
       <r>     4.6586     0.6816     4.2488 </r>
       <r>     4.9090     0.4038     4.3499 </r>
       <r>     5.1593     0.1627     4.3906 </r>
       <r>     5.4097     1.5173     4.7705 </r>
       <r>     5.6601    -0.0194     4.7656 </r>
       <r>     5.9104     0.4814     4.8861 </r>
       <r>     6.1608     0.2675     4.9531 </r>
       <r>     6.4112     0.0032     4.9539 </r>
       <r>     6.6616     0.2144     5.0076 </r>
       <r>     6.9119     0.3441     5.0938 </r>
       <r>     7.1623    -0.0000     5.0938 </r>
       <r>     7.4127    -0.0007     5.0936 </r>
       <r>     7.6630     1.4549     5.4578 </r>
       <r>     7.9134     0.0436     5.4687 </r>
       <r>     8.1638     0.5202     5.5990 </r>
       <r>     8.4141     1.7271     6.0314 </r>
       <r>     8.6645     0.7452     6.2180 </r>
       <r>     8.9149     0.7520     6.4062 </r>
       <r>     9.1652     0.7551     6.5953 </r>
       <r>     9.4156     2.1767     7.1403 </r>
       <r>     9.6660     0.4677     7.2574 </r>
       <r>     9.9163     0.8448     7.4689 </r>
       <r>    10.1667     1.4264     7.8260 </r>
       <r>    10.4171     0.1298     7.8585 </r>
       <r>    10.6674     0.0035     7.8594 </r>
       <r>    10.9178    -0.0013     7.8590 </r>
       <r>    11.1682     0.6263     8.0158 </r>
       <r>    11.4185    -0.0265     8.0092 </r>
       <r>    11.6689     0.7745     8.2031 </r>
       <r>    11.9193     0.0699     8.2206 </r>
       <r>    12.1696     1.4177     8.5756 </r>
       <r>    12.4200     0.0102     8.5781 </r>
       <r>    12.6704    -0.0000     8.5781 </r>
       <r>    12.9207    -0.0000     8.5781 </r>
       <r>    13.1711     0.0114     8.5810 </r>
       <r>    13.4215     0.6864     8.7528 </r>
       <r>    13.6718     0.5503     8.8906 </r>
       <r>    13.9222     0.1240     8.9217 </r>
       <r>    14.1726     1.7010     9.3476 </r>
       <r>    14.4230     0.4216     9.4531 </r>
       <r>    14.6733     0.4069     9.5550 </r>
       <r>    14.9237     0.6715     9.7231 </r>
       <r>    15.1741     1.7957    10.1727 </r>
       <r>    15.4244     1.0577    10.4375 </r>
       <r>    15.6748     0.2129    10.4908 </r>
       <r>    15.9252     2.4275    11.0986 </r>
       <r>    16.1755     0.4348    11.2074 </r>
       <r>    16.4259     1.5065    11.5846 </r>
       <r>    16.6763     1.1388    11.8697 </r>
       <r>    16.9266     1.5228    12.2510 </r>
       <r>    17.1770     1.4984    12.6261 </r>
       <r>    17.4274     0.4437    12.7372 </r>
       <r>    17.6777     1.0599    13.0026 </r>
       <r>    17.9281     0.0523    13.0157 </r>
       <r>    18.1785    -0.0001    13.0156 </r>
       <r>    18.4288    -0.0000    13.0156 </r>
       <r>    18.6792    -0.0320    13.0076 </r>
       <r>    18.9296     1.0305    13.2656 </r>
       <r>    19.1799     0.0000    13.2656 </r>
       <r>    19.4303     0.0000    13.2656 </r>
       <r>    19.6807    -0.0000    13.2656 </r>
       <r>    19.9310    -0.0000    13.2656 </r>
       <r>    20.1814     0.0776    13.2850 </r>
       <r>    20.4318     1.4202    13.6406 </r>
       <r>    20.6821     1.5212    14.0215 </r>
       <r>    20.9325    -0.0235    14.0156 </r>
       <r>    21.1829     0.7535    14.2042 </r>
       <r>    21.4332     0.7687    14.3967 </r>
       <r>    21.6836     1.8632    14.8632 </r>
       <r>    21.9340     1.8570    15.3281 </r>
       <r>    22.1844    -0.0000    15.3281 </r>
       <r>    22.4347     0.2794    15.3981 </r>
       <r>    22.6851     3.7001    16.3245 </r>
       <r>    22.9355     1.0735    16.5932 </r>
       <r>    23.1858     1.5396    16.9787 </r>
       <r>    23.4362     2.4496    17.5920 </r>
       <r>    23.6866     1.0496    17.8548 </r>
       <r>    23.9369     1.3943    18.2039 </r>
       <r>    24.1873    -0.0030    18.2031 </r>
       <r>    24.4377     0.2044    18.2543 </r>
       <r>    24.6880     1.6998    18.6799 </r>
       <r>    24.9384    -0.0320    18.6719 </r>
       <r>    25.1888     0.4814    18.7924 </r>
       <r>    25.4391     0.7632    18.9835 </r>
       <r>    25.6895     2.0040    19.4852 </r>
       <r>    25.9399    -0.0034    19.4844 </r>
       <r>    26.1902     0.0000    19.4844 </r>
       <r>    26.4406    -0.0000    19.4844 </r>
       <r>    26.6910    -0.0000    19.4844 </r>
       <r>    26.9413    -0.0003    19.4843 </r>
       <r>    27.1917     1.5067    19.8615 </r>
       <r>    27.4421    -0.0086    19.8594 </r>
       <r>    27.6924     1.0972    20.1341 </r>
       <r>    27.9428     1.1495    20.4219 </r>
       <r>    28.1932     0.9701    20.6648 </r>
       <r>    28.4435     0.7149    20.8438 </r>
       <r>    28.6939     0.4009    20.9441 </r>
       <r>    28.9443     2.1504    21.4825 </r>
       <r>    29.1946     0.1326    21.5157 </r>
       <r>    29.4450     1.3710    21.8590 </r>
       <r>    29.6954     1.6026    22.2602 </r>
       <r>    29.9458     1.5205    22.6409 </r>
       <r>    30.1961     1.3973    22.9907 </r>
       <r>    30.4465     0.8551    23.2048 </r>
       <r>    30.6969     2.6718    23.8738 </r>
       <r>    30.9472     1.2413    24.1845 </r>
       <r>    31.1976     0.4944    24.3083 </r>
       <r>    31.4480     0.6949    24.4823 </r>
       <r>    31.6983     2.4396    25.0931 </r>
       <r>    31.9487     2.9168    25.8234 </r>
       <r>    32.1991     1.4798    26.1939 </r>
       <r>    32.4494     0.3490    26.2813 </r>
       <r>    32.6998    -0.0024    26.2807 </r>
       <r>    32.9502     0.8840    26.5020 </r>
       <r>    33.2005     1.1954    26.8013 </r>
       <r>    33.4509     1.4227    27.1575 </r>
       <r>    33.7013     0.7440    27.3438 </r>
       <r>    33.9516     0.8524    27.5572 </r>
       <r>    34.2020     0.1461    27.5938 </r>
       <r>    34.4524    -0.0000    27.5938 </r>
       <r>    34.7027    -0.0473    27.5819 </r>
       <r>    34.9531     1.5451    27.9688 </r>
       <r>    35.2035     0.2275    28.0257 </r>
       <r>    35.4538     0.7718    28.2190 </r>
       <r>    35.7042    -0.0114    28.2161 </r>
       <r>    35.9546     0.3851    28.3125 </r>
       <r>    36.2049     0.2565    28.3767 </r>
       <r>    36.4553     0.6254    28.5333 </r>
       <r>    36.7057     1.9786    29.0287 </r>
       <r>    36.9560     1.3609    29.3694 </r>
       <r>    37.2064     1.7555    29.8089 </r>
       <r>    37.4568     1.9813    30.3050 </r>
       <r>    37.7072     0.0073    30.3068 </r>
       <r>    37.9575     2.2153    30.8614 </r>
       <r>    38.2079     1.2078    31.1638 </r>
       <r>    38.4583     0.6920    31.3371 </r>
       <r>    38.7086     1.9447    31.8240 </r>
       <r>    38.9590     1.1158    32.1033 </r>
       <r>    39.2094     2.2372    32.6634 </r>
       <r>    39.4597     3.5939    33.5632 </r>
       <r>    39.7101     1.2125    33.8668 </r>
       <r>    39.9605     3.8199    34.8232 </r>
       <r>    40.2108     1.0915    35.0965 </r>
       <r>    40.4612     0.4884    35.2188 </r>
       <r>    40.7116    -0.0000    35.2188 </r>
       <r>    40.9619    -0.0000    35.2187 </r>
       <r>    41.2123     0.2351    35.2776 </r>
       <r>    41.4627     0.5138    35.4063 </r>
       <r>    41.7130     0.0607    35.4214 </r>
       <r>    41.9634     1.5308    35.8047 </r>
       <r>    42.2138     0.0311    35.8125 </r>
       <r>    42.4641    -0.0719    35.7945 </r>
       <r>    42.7145     3.6889    36.7181 </r>
       <r>    42.9649     0.8050    36.9196 </r>
       <r>    43.2152     0.0714    36.9375 </r>
       <r>    43.4656     0.0058    36.9389 </r>
       <r>    43.7160     0.6897    37.1116 </r>
       <r>    43.9663     1.1076    37.3889 </r>
       <r>    44.2167     0.3818    37.4845 </r>
       <r>    44.4671     0.1288    37.5168 </r>
       <r>    44.7174     1.9754    38.0113 </r>
       <r>    44.9678     2.4469    38.6240 </r>
       <r>    45.2182     3.4573    39.4895 </r>
       <r>    45.4686     0.2348    39.5483 </r>
       <r>    45.7189    -0.0496    39.5359 </r>
       <r>    45.9693     3.3754    40.3810 </r>
       <r>    46.2197     1.8140    40.8352 </r>
       <r>    46.4700     0.2900    40.9078 </r>
       <r>    46.7204     0.7296    41.0904 </r>
       <r>    46.9708     1.0833    41.3617 </r>
       <r>    47.2211     2.1688    41.9047 </r>
       <r>    47.4715     0.8230    42.1107 </r>
       <r>    47.7219     1.1804    42.4063 </r>
       <r>    47.9722    -0.0114    42.4034 </r>
       <r>    48.2226     1.2382    42.7134 </r>
       <r>    48.4730     0.7702    42.9063 </r>
       <r>    48.7233    -0.0058    42.9048 </r>
       <r>    48.9737     0.9553    43.1440 </r>
       <r>    49.2241     2.3709    43.7376 </r>
       <r>    49.4744     1.4003    44.0882 </r>
       <r>    49.7248     2.2139    44.6425 </r>
       <r>    49.9752     1.9522    45.1312 </r>
       <r>    50.2255     0.6988    45.3062 </r>
       <r>    50.4759     2.2097    45.8594 </r>
       <r>    50.7263     0.7034    46.0355 </r>
       <r>    50.9766     1.1242    46.3170 </r>
       <r>    51.2270     1.5424    46.7032 </r>
       <r>    51.4774     2.3302    47.2866 </r>
       <r>    51.7277     0.6651    47.4531 </r>
       <r>    51.9781     2.3003    48.0290 </r>
       <r>    52.2285     0.0615    48.0444 </r>
       <r>    52.4788     1.8105    48.4977 </r>
       <r>    52.7292     1.2602    48.8132 </r>
       <r>    52.9796     0.2638    48.8792 </r>
       <r>    53.2300     0.2328    48.9375 </r>
       <r>    53.4803    -0.0000    48.9375 </r>
       <r>    53.7307     0.5049    49.0639 </r>
       <r>    53.9811     2.2405    49.6249 </r>
       <r>    54.2314     0.7479    49.8121 </r>
       <r>    54.4818     0.2424    49.8728 </r>
       <r>    54.7322     1.8093    50.3258 </r>
       <r>    54.9825    -0.0531    50.3125 </r>
       <r>    55.2329     0.0579    50.3270 </r>
       <r>    55.4833     0.5469    50.4639 </r>
       <r>    55.7336     0.9054    50.6906 </r>
       <r>    55.9840     2.1064    51.2180 </r>
       <r>    56.2344     1.9758    51.7126 </r>
       <r>    56.4847     0.7109    51.8906 </r>
       <r>    56.7351     0.1914    51.9385 </r>
       <r>    56.9855     1.8109    52.3919 </r>
       <r>    57.2358     1.6121    52.7955 </r>
       <r>    57.4862     1.0522    53.0590 </r>
       <r>    57.7366     0.1619    53.0995 </r>
       <r>    57.9869     0.5236    53.2306 </r>
       <r>    58.2373     0.7639    53.4219 </r>
       <r>    58.4877     0.1928    53.4701 </r>
       <r>    58.7380     0.3736    53.5637 </r>
       <r>    58.9884     1.5458    53.9507 </r>
       <r>    59.2388    -0.0562    53.9366 </r>
       <r>    59.4891     0.2530    54.0000 </r>
       <r>    59.7395     0.0000    54.0000 </r>
       <r>    59.9899     0.0000    54.0000 </r>
       <r>    60.2402     0.0000    54.0000 </r>
       <r>    60.4906     0.0000    54.0000 </r>
       <r>    60.7410     0.0000    54.0000 </r>
       <r>    60.9914     0.0000    54.0000 </r>
       <r>    61.2417     0.0000    54.0000 </r>
       <r>    61.4921     0.0000    54.0000 </r>
       <r>    61.7425     0.0000    54.0000 </r>
       <r>    61.9928     0.0000    54.0000 </r>
       <r>    62.2432     0.0000    54.0000 </r>
       <r>    62.4936     0.0000    54.0000 </r>
       <r>    62.7439     0.0000    54.0000 </r>
      </set>
      <set comment="spin 2">
       <r>   -12.3664     0.0000     0.0000 </r>
       <r>   -12.1160     0.0000     0.0000 </r>
       <r>   -11.8657     0.0000     0.0000 </r>
       <r>   -11.6153     0.0000     0.0000 </r>
       <r>   -11.3649     0.0000     0.0000 </r>
       <r>   -11.1146     0.0000     0.0000 </r>
       <r>   -10.8642     0.0000     0.0000 </r>
       <r>   -10.6138     0.0000     0.0000 </r>
       <r>   -10.3635     0.0000     0.0000 </r>
       <r>   -10.1131     0.0000     0.0000 </r>
       <r>    -9.8627     0.0000     0.0000 </r>
       <r>    -9.6124     0.0000     0.0000 </r>
       <r>    -9.3620    -0.0000    -0.0000 </r>
       <r>    -9.1116    -0.0000    -0.0000 </r>
       <r>    -8.8613     0.0633     0.0158 </r>
       <r>    -8.6109    -0.0009     0.0156 </r>
       <r>    -8.3605    -0.0000     0.0156 </r>
       <r>    -8.1101     0.5058     0.1423 </r>
       <r>    -7.8598     0.3795     0.2373 </r>
       <r>    -7.6094    -0.0116     0.2344 </r>
       <r>    -7.3590    -0.0000     0.2344 </r>
       <r>    -7.1087    -0.0261     0.2278 </r>
       <r>    -6.8583     0.8124     0.4312 </r>
       <r>    -6.6079     0.2122     0.4844 </r>
       <r>    -6.3576     1.5507     0.8726 </r>
       <r>    -6.1072    -0.0529     0.8594 </r>
       <r>    -5.8568     0.0000     0.8594 </r>
       <r>    -5.6065    -0.0000     0.8594 </r>
       <r>    -5.3561    -0.0000     0.8594 </r>
       <r>    -5.1057    -0.0053     0.8580 </r>
       <r>    -4.8554     1.1544     1.1471 </r>
       <r>    -4.6050    -0.0258     1.1406 </r>
       <r>    -4.3546    -0.0000     1.1406 </r>
       <r>    -4.1043    -0.0000     1.1406 </r>
       <r>    -3.8539    -0.0009     1.1404 </r>
       <r>    -3.6035     0.2428     1.2012 </r>
       <r>    -3.3532     1.5059     1.5782 </r>
       <r>    -3.1028    -0.0003     1.5781 </r>
       <r>    -2.8524    -0.0000     1.5781 </r>
       <r>    -2.6021     0.6419     1.7388 </r>
       <r>    -2.3517     0.1070     1.7656 </r>
       <r>    -2.1013     0.0000     1.7656 </r>
       <r>    -1.8510     0.0000     1.7656 </r>
       <r>    -1.6006     0.0000     1.7656 </r>
       <r>    -1.3502    -0.0000     1.7656 </r>
       <r>    -1.0999    -0.0000     1.7656 </r>
       <r>    -0.8495    -0.0053     1.7643 </r>
       <r>    -0.5991     0.8790     1.9844 </r>
       <r>    -0.3487    -0.0000     1.9844 </r>
       <r>    -0.0984     0.0262     1.9909 </r>
       <r>     0.1520     2.7771     2.6862 </r>
       <r>     0.4024     0.1922     2.7344 </r>
       <r>     0.6527    -0.0002     2.7343 </r>
       <r>     0.9031     0.3756     2.8284 </r>
       <r>     1.1535    -0.0010     2.8281 </r>
       <r>     1.4038    -0.0483     2.8160 </r>
       <r>     1.6542     1.5461     3.2031 </r>
       <r>     1.9046     0.7755     3.3973 </r>
       <r>     2.1549    -0.0266     3.3906 </r>
       <r>     2.4053     0.5336     3.5242 </r>
       <r>     2.6557     0.7146     3.7031 </r>
       <r>     2.9060    -0.0015     3.7028 </r>
       <r>     3.1564     1.0009     3.9533 </r>
       <r>     3.4068    -0.0009     3.9531 </r>
       <r>     3.6571    -0.0000     3.9531 </r>
       <r>     3.9075     0.0170     3.9574 </r>
       <r>     4.1579     0.3774     4.0519 </r>
       <r>     4.4082     0.1049     4.0781 </r>
       <r>     4.6586     0.6816     4.2488 </r>
       <r>     4.9090     0.4038     4.3499 </r>
       <r>     5.1593     0.1627     4.3906 </r>
       <r>     5.4097     1.5173     4.7705 </r>
       <r>     5.6601    -0.0194     4.7656 </r>
       <r>     5.9104     0.4814     4.8862 </r>
       <r>     6.1608     0.2675     4.9531 </r>
       <r>     6.4112     0.0032     4.9539 </r>
       <r>     6.6616     0.2144     5.0076 </r>
       <r>     6.9119     0.3441     5.0938 </r>
       <r>     7.1623    -0.0000     5.0938 </r>
       <r>     7.4127    -0.0007     5.0936 </r>
       <r>     7.6630     1.4550     5.4579 </r>
       <r>     7.9134     0.0435     5.4687 </r>
       <r>     8.1638     0.5204     5.5990 </r>
       <r>     8.4141     1.7269     6.0314 </r>
       <r>     8.6645     0.7452     6.2180 </r>
       <r>     8.9149     0.7520     6.4062 </r>
       <r>     9.1652     0.7551     6.5953 </r>
       <r>     9.4156     2.1767     7.1403 </r>
       <r>     9.6660     0.4677     7.2574 </r>
       <r>     9.9163     0.8448     7.4689 </r>
       <r>    10.1667     1.4265     7.8260 </r>
       <r>    10.4171     0.1297     7.8585 </r>
       <r>    10.6674     0.0035     7.8594 </r>
       <r>    10.9178    -0.0013     7.8590 </r>
       <r>    11.1682     0.6263     8.0158 </r>
       <r>    11.4185    -0.0265     8.0092 </r>
       <r>    11.6689     0.7745     8.2031 </r>
       <r>    11.9193     0.0698     8.2206 </r>
       <r>    12.1696     1.4178     8.5756 </r>
       <r>    12.4200     0.0102     8.5781 </r>
       <r>    12.6704    -0.0000     8.5781 </r>
       <r>    12.9207    -0.0000     8.5781 </r>
       <r>    13.1711     0.0115     8.5810 </r>
       <r>    13.4215     0.6863     8.7528 </r>
       <r>    13.6718     0.5504     8.8906 </r>
       <r>    13.9222     0.1239     8.9216 </r>
       <r>    14.1726     1.7011     9.3475 </r>
       <r>    14.4230     0.4217     9.4531 </r>
       <r>    14.6733     0.4069     9.5550 </r>
       <r>    14.9237     0.6715     9.7231 </r>
       <r>    15.1741     1.7960    10.1728 </r>
       <r>    15.4244     1.0574    10.4375 </r>
       <r>    15.6748     0.2129    10.4908 </r>
       <r>    15.9252     2.4275    11.0986 </r>
       <r>    16.1755     0.4348    11.2074 </r>
       <r>    16.4259     1.5065    11.5846 </r>
       <r>    16.6763     1.1388    11.8697 </r>
       <r>    16.9266     1.5228    12.2510 </r>
       <r>    17.1770     1.4984    12.6261 </r>
       <r>    17.4274     0.4435    12.7372 </r>
       <r>    17.6777     1.0601    13.0026 </r>
       <r>    17.9281     0.0523    13.0157 </r>
       <r>    18.1785    -0.0001    13.0156 </r>
       <r>    18.4288    -0.0000    13.0156 </r>
       <r>    18.6792    -0.0320    13.0076 </r>
       <r>    18.9296     1.0305    13.2656 </r>
       <r>    19.1799     0.0000    13.2656 </r>
       <r>    19.4303     0.0000    13.2656 </r>
       <r>    19.6807    -0.0000    13.2656 </r>
       <r>    19.9310    -0.0000    13.2656 </r>
       <r>    20.1814     0.0775    13.2850 </r>
       <r>    20.4318     1.4203    13.6406 </r>
       <r>    20.6821     1.5213    14.0215 </r>
       <r>    20.9325    -0.0235    14.0156 </r>
       <r>    21.1829     0.7535    14.2042 </r>
       <r>    21.4332     0.7687    14.3967 </r>
       <r>    21.6836     1.8630    14.8631 </r>
       <r>    21.9340     1.8573    15.3281 </r>
       <r>    22.1844    -0.0000    15.3281 </r>
       <r>    22.4347     0.2795    15.3981 </r>
       <r>    22.6851     3.6999    16.3244 </r>
       <r>    22.9355     1.0736    16.5932 </r>
       <r>    23.1858     1.5396    16.9787 </r>
       <r>    23.4362     2.4496    17.5920 </r>
       <r>    23.6866     1.0495    17.8548 </r>
       <r>    23.9369     1.3944    18.2039 </r>
       <r>    24.1873    -0.0030    18.2031 </r>
       <r>    24.4377     0.2042    18.2543 </r>
       <r>    24.6880     1.7000    18.6799 </r>
       <r>    24.9384    -0.0319    18.6719 </r>
       <r>    25.1888     0.4815    18.7924 </r>
       <r>    25.4391     0.7631    18.9835 </r>
       <r>    25.6895     2.0040    19.4852 </r>
       <r>    25.9399    -0.0034    19.4844 </r>
       <r>    26.1902     0.0000    19.4844 </r>
       <r>    26.4406    -0.0000    19.4844 </r>
       <r>    26.6910    -0.0000    19.4844 </r>
       <r>    26.9413    -0.0003    19.4843 </r>
       <r>    27.1917     1.5067    19.8615 </r>
       <r>    27.4421    -0.0086    19.8594 </r>
       <r>    27.6924     1.0966    20.1339 </r>
       <r>    27.9428     1.1501    20.4219 </r>
       <r>    28.1932     0.9704    20.6648 </r>
       <r>    28.4435     0.7146    20.8438 </r>
       <r>    28.6939     0.4010    20.9442 </r>
       <r>    28.9443     2.1503    21.4825 </r>
       <r>    29.1946     0.1326    21.5157 </r>
       <r>    29.4450     1.3710    21.8590 </r>
       <r>    29.6954     1.6026    22.2602 </r>
       <r>    29.9458     1.5205    22.6409 </r>
       <r>    30.1961     1.3974    22.9907 </r>
       <r>    30.4465     0.8548    23.2048 </r>
       <r>    30.6969     2.6721    23.8738 </r>
       <r>    30.9472     1.2413    24.1845 </r>
       <r>    31.1976     0.4944    24.3083 </r>
       <r>    31.4480     0.6949    24.4823 </r>
       <r>    31.6983     2.4396    25.0931 </r>
       <r>    31.9487     2.9168    25.8234 </r>
       <r>    32.1991     1.4798    26.1939 </r>
       <r>    32.4494     0.3491    26.2813 </r>
       <r>    32.6998    -0.0024    26.2807 </r>
       <r>    32.9502     0.8840    26.5020 </r>
       <r>    33.2005     1.1954    26.8013 </r>
       <r>    33.4509     1.4227    27.1575 </r>
       <r>    33.7013     0.7440    27.3438 </r>
       <r>    33.9516     0.8525    27.5572 </r>
       <r>    34.2020     0.1460    27.5938 </r>
       <r>    34.4524    -0.0000    27.5938 </r>
       <r>    34.7027    -0.0473    27.5819 </r>
       <r>    34.9531     1.5451    27.9688 </r>
       <r>    35.2035     0.2274    28.0257 </r>
       <r>    35.4538     0.7719    28.2190 </r>
       <r>    35.7042    -0.0114    28.2161 </r>
       <r>    35.9546     0.3851    28.3125 </r>
       <r>    36.2049     0.2565    28.3767 </r>
       <r>    36.4553     0.6254    28.5333 </r>
       <r>    36.7057     1.9787    29.0287 </r>
       <r>    36.9560     1.3609    29.3694 </r>
       <r>    37.2064     1.7556    29.8089 </r>
       <r>    37.4568     1.9810    30.3049 </r>
       <r>    37.7072     0.0075    30.3068 </r>
       <r>    37.9575     2.2154    30.8614 </r>
       <r>    38.2079     1.2078    31.1638 </r>
       <r>    38.4583     0.6919    31.3371 </r>
       <r>    38.7086     1.9447    31.8240 </r>
       <r>    38.9590     1.1159    32.1033 </r>
       <r>    39.2094     2.2372    32.6635 </r>
       <r>    39.4597     3.5937    33.5632 </r>
       <r>    39.7101     1.2123    33.8667 </r>
       <r>    39.9605     3.8202    34.8232 </r>
       <r>    40.2108     1.0916    35.0965 </r>
       <r>    40.4612     0.4884    35.2188 </r>
       <r>    40.7116    -0.0000    35.2188 </r>
       <r>    40.9619    -0.0000    35.2187 </r>
       <r>    41.2123     0.2353    35.2777 </r>
       <r>    41.4627     0.5136    35.4063 </r>
       <r>    41.7130     0.0607    35.4214 </r>
       <r>    41.9634     1.5313    35.8048 </r>
       <r>    42.2138     0.0307    35.8125 </r>
       <r>    42.4641    -0.0720    35.7945 </r>
       <r>    42.7145     3.6872    36.7176 </r>
       <r>    42.9649     0.8065    36.9196 </r>
       <r>    43.2152     0.0716    36.9375 </r>
       <r>    43.4656     0.0058    36.9389 </r>
       <r>    43.7160     0.6919    37.1122 </r>
       <r>    43.9663     1.1048    37.3888 </r>
       <r>    44.2167     0.3823    37.4845 </r>
       <r>    44.4671     0.1266    37.5162 </r>
       <r>    44.7174     1.9771    38.0112 </r>
       <r>    44.9678     2.4452    38.6234 </r>
       <r>    45.2182     3.4599    39.4897 </r>
       <r>    45.4686     0.2345    39.5484 </r>
       <r>    45.7189    -0.0500    39.5358 </r>
       <r>    45.9693     3.3752    40.3809 </r>
       <r>    46.2197     1.8164    40.8357 </r>
       <r>    46.4700     0.2907    40.9084 </r>
       <r>    46.7204     0.7270    41.0904 </r>
       <r>    46.9708     1.0809    41.3611 </r>
       <r>    47.2211     2.1683    41.9039 </r>
       <r>    47.4715     0.8287    42.1114 </r>
       <r>    47.7219     1.1776    42.4063 </r>
       <r>    47.9722    -0.0118    42.4033 </r>
       <r>    48.2226     1.2395    42.7136 </r>
       <r>    48.4730     0.7694    42.9063 </r>
       <r>    48.7233    -0.0051    42.9050 </r>
       <r>    48.9737     0.9470    43.1421 </r>
       <r>    49.2241     2.3796    43.7378 </r>
       <r>    49.4744     1.4004    44.0885 </r>
       <r>    49.7248     2.3201    44.6693 </r>
       <r>    49.9752     1.3187    44.9995 </r>
       <r>    50.2255     1.1947    45.2986 </r>
       <r>    50.4759     2.2419    45.8599 </r>
       <r>    50.7263     0.6773    46.0295 </r>
       <r>    50.9766     0.8011    46.2300 </r>
       <r>    51.2270     1.8901    46.7033 </r>
       <r>    51.4774     2.2108    47.2568 </r>
       <r>    51.7277     0.7840    47.4530 </r>
       <r>    51.9781     2.3116    48.0318 </r>
       <r>    52.2285     0.5072    48.1588 </r>
       <r>    52.4788     1.2890    48.4815 </r>
       <r>    52.7292     1.3222    48.8125 </r>
       <r>    52.9796     0.4359    48.9216 </r>
       <r>    53.2300     0.0633    48.9375 </r>
       <r>    53.4803    -0.0001    48.9375 </r>
       <r>    53.7307     0.8515    49.1507 </r>
       <r>    53.9811     2.0918    49.6744 </r>
       <r>    54.2314     0.5510    49.8123 </r>
       <r>    54.4818     0.5007    49.9377 </r>
       <r>    54.7322    -0.0534    49.9243 </r>
       <r>    54.9825     1.5504    50.3125 </r>
       <r>    55.2329    -0.0042    50.3114 </r>
       <r>    55.4833     0.4954    50.4355 </r>
       <r>    55.7336     1.1925    50.7340 </r>
       <r>    55.9840     1.9463    51.2213 </r>
       <r>    56.2344     3.0264    51.9790 </r>
       <r>    56.4847     0.0582    51.9936 </r>
       <r>    56.7351     0.1861    52.0402 </r>
       <r>    56.9855     1.2117    52.3436 </r>
       <r>    57.2358     0.4125    52.4468 </r>
       <r>    57.4862     2.9539    53.1864 </r>
       <r>    57.7366     0.0043    53.1875 </r>
       <r>    57.9869     0.9005    53.4129 </r>
       <r>    58.2373     0.0314    53.4208 </r>
       <r>    58.4877     0.3213    53.5013 </r>
       <r>    58.7380     0.4435    53.6123 </r>
       <r>    58.9884     1.5486    54.0000 </r>
       <r>    59.2388     0.0000    54.0000 </r>
       <r>    59.4891     0.0000    54.0000 </r>
       <r>    59.7395     0.0000    54.0000 </r>
       <r>    59.9899     0.0000    54.0000 </r>
       <r>    60.2402     0.0000    54.0000 </r>
       <r>    60.4906     0.0000    54.0000 </r>
       <r>    60.7410     0.0000    54.0000 </r>
       <r>    60.9914     0.0000    54.0000 </r>
       <r>    61.2417     0.0000    54.0000 </r>
       <r>    61.4921     0.0000    54.0000 </r>
       <r>    61.7425     0.0000    54.0000 </r>
       <r>    61.9928     0.0000    54.0000 </r>
       <r>    62.2432     0.0000    54.0000 </r>
       <r>    62.4936     0.0000    54.0000 </r>
       <r>    62.7439     0.0000    54.0000 </r>
      </set>
     </set>
    </array>
   </total>
  </dos>
 </calculation>
 <structure name="finalpos" >
  <crystal>
   <varray name="basis" >
    <v>       0.00000000       2.81650000       2.81650000 </v>
    <v>       2.81650000       0.00000000       2.81650000 </v>
    <v>       2.81650000       2.81650000       0.00000000 </v>
   </varray>
   <i name="volume">     44.68474278 </i>
   <varray name="rec_basis" >
    <v>      -0.17752530       0.17752530       0.17752530 </v>
    <v>       0.17752530      -0.17752530       0.17752530 </v>
    <v>       0.17752530       0.17752530      -0.17752530 </v>
   </varray>
  </crystal>
  <varray name="positions" >
   <v>       0.00000000       0.00000000       0.00000000 </v>
   <v>       0.25000000       0.25000000       0.25000000 </v>
  </varray>
 </structure>
</modeling>
