 running on   54 total cores
 distrk:  each k-point on    9 cores,    6 groups
 distr:  one band on    3 cores,    3 groups
 using from now: INCAR     
 vasp.5.4.4.18Apr17-6-g9f103f2a35 (build Sep 10 2021 22:26:18) complex          
  
 POSCAR found type information on POSCAR  Ge
 POSCAR found :  1 types and       2 ions
 scaLAPACK will be used

 ----------------------------------------------------------------------------- 
|                                                                             |
|           W    W    AA    RRRRR   N    N  II  N    N   GGGG   !!!           |
|           W    W   A  A   R    R  NN   N  II  NN   N  G    G  !!!           |
|           W    W  A    A  R    R  N N  N  II  N N  N  G       !!!           |
|           W WW W  AAAAAA  RRRRR   N  N N  II  N  N N  G  GGG   !            |
|           WW  WW  A    A  R   R   N   NN  II  N   NN  G    G                |
|           W    W  A    A  R    R  N    N  II  N    N   GGGG   !!!           |
|                                                                             |
|      For optimal performance we recommend to set                            |
|        NCORE= 4 - approx SQRT( number of cores)                             |
|      NCORE specifies how many cores store one orbital (NPAR=cpu/NCORE).     |
|      This setting can  greatly improve the performance of VASP for DFT.     |
|      The default,   NCORE=1            might be grossly inefficient         |
|      on modern multi-core architectures or massively parallel machines.     |
|      Do your own testing !!!!                                               |
|      Unfortunately you need to use the default for GW and RPA calculations. |
|      (for HF NCORE is supported but not extensively tested yet)             |
|                                                                             |
 ----------------------------------------------------------------------------- 


 ----------------------------------------------------------------------------- 
|                                                                             |
|           W    W    AA    RRRRR   N    N  II  N    N   GGGG   !!!           |
|           W    W   A  A   R    R  NN   N  II  NN   N  G    G  !!!           |
|           W    W  A    A  R    R  N N  N  II  N N  N  G       !!!           |
|           W WW W  AAAAAA  RRRRR   N  N N  II  N  N N  G  GGG   !            |
|           WW  WW  A    A  R   R   N   NN  II  N   NN  G    G                |
|           W    W  A    A  R    R  N    N  II  N    N   GGGG   !!!           |
|                                                                             |
|      You have enabled k-point parallelism (KPAR>1).                         |
|      This developmental code was originally  written by Paul Kent at ORNL,  |
|      and carefully double checked in Vienna.                                |
|      GW as well as linear response parallelism added by Martijn Marsman     |
|      and Georg Kresse.                                                      |
|      Carefully verify results versus KPAR=1.                                |
|      Report problems to Paul Kent and Vienna.                               |
|                                                                             |
 ----------------------------------------------------------------------------- 

 LDA part: xc-table for Pade appr. of Perdew
 POSCAR, INCAR and KPOINTS ok, starting setup
 FFT: planning ...
 WAVECAR not read
 entering main loop
       N       E                     dE             d eps       ncg     rms          ort
DAV:   1     0.109016562082E+02    0.10902E+02   -0.44237E+03   432   0.145E+02
DAV:   2    -0.747367098627E+01   -0.18375E+02   -0.16793E+02   432   0.263E+01
DAV:   3    -0.874972449752E+01   -0.12761E+01   -0.12599E+01   432   0.680E+00
DAV:   4    -0.877476817728E+01   -0.25044E-01   -0.25036E-01   432   0.101E+00
DAV:   5    -0.877549453212E+01   -0.72635E-03   -0.72519E-03   432   0.162E-01
 gam= 0.000 g(H,U,f)=  0.627E-02 0.289E-01-0.222E-05 ort(H,U,f) = 0.000E+00 0.000E+00 0.000E+00
SDA:   6    -0.863161624760E+01    0.14388E+00   -0.14079E-01   432   0.352E-01 0.000E+00
 gam= 0.382 g(H,U,f)=  0.206E-02 0.180E-01-0.711E-06 ort(H,U,f) = 0.365E-02 0.228E-01-0.993E-06
DMP:   7    -0.864394439993E+01   -0.12328E-01   -0.12054E-01   432   0.200E-01 0.265E-01
 gam= 0.382 g(H,U,f)=  0.240E-03 0.851E-02-0.228E-04 ort(H,U,f) = 0.112E-02 0.184E-01-0.521E-04
DMP:   8    -0.865394792745E+01   -0.10004E-01   -0.64610E-02   432   0.873E-02 0.194E-01
 gam= 0.382 g(H,U,f)=  0.574E-04 0.329E-02-0.147E-07 ort(H,U,f) =-0.901E-04 0.964E-02-0.709E-07
DMP:   9    -0.865901045112E+01   -0.50625E-02   -0.27982E-02   432   0.335E-02 0.955E-02
 gam= 0.382 g(H,U,f)=  0.117E-03 0.106E-02-0.154E-08 ort(H,U,f) =-0.749E-04 0.394E-02-0.888E-08
DMP:  10    -0.866118083947E+01   -0.21704E-02   -0.10629E-02   432   0.118E-02 0.387E-02
 gam= 0.382 g(H,U,f)=  0.762E-04 0.310E-03-0.288E-06 ort(H,U,f) = 0.575E-04 0.136E-02-0.189E-05
DMP:  11    -0.866194880913E+01   -0.76797E-03   -0.37136E-03   432   0.386E-03 0.142E-02
 gam= 0.382 g(H,U,f)=  0.250E-04 0.749E-04 0.917E-07 ort(H,U,f) = 0.506E-04 0.385E-03 0.169E-05
DMP:  12    -0.866222180155E+01   -0.27299E-03   -0.10686E-03   432   0.100E-03 0.438E-03
 gam= 0.382 g(H,U,f)=  0.429E-05 0.184E-04 0.112E-06 ort(H,U,f) = 0.136E-04 0.885E-04-0.953E-06
DMP:  13    -0.866229501146E+01   -0.73210E-04   -0.24590E-04   432   0.228E-04 0.101E-03
 final diagonalization
   1 F= -.86622950E+01 E0= -.86623901E+01  d E =0.285411E-03  mag=    -0.0000
 writing wavefunctions
