unknown system                          
   1.00000000000000     
     0.000000    2.816500    2.816500
     2.816500    0.000000    2.816500
     2.816500    2.816500    0.000000
   Ge
     2
Direct
  0.000000  0.000000  0.000000
  0.250000  0.250000  0.250000
 
   48   48   48
 -6.7136     -5.9337     -3.7080     -.35769      3.6490      7.7837      11.552      14.573      16.622      17.642    
  17.713      17.017      15.794      14.304      12.797      11.457      10.302      9.3188      8.4946      7.8212    
  7.2900      6.8915      6.6158      6.4543      6.4011      6.4543      6.6158      6.8915      7.2900      7.8212    
  8.4945      9.3188      10.302      11.457      12.797      14.304      15.794      17.017      17.713      17.642    
  16.622      14.573      11.552      7.7837      3.6490     -.35770     -3.7080     -5.9337     -5.9337     -4.4505    
 -1.6923      1.9614      6.0274      10.004      13.455      16.069      17.691      18.319      18.069      17.149    
  15.812      14.320      12.911      11.684      10.626      9.7262      8.9770      8.3720      7.9037      7.5633    
  7.3423      7.2337      7.2337      7.3423      7.5633      7.9037      8.3720      8.9770      9.7262      10.626    
  11.684      12.911      14.320      15.812      17.149      18.069      18.319      17.691      16.069      13.455    
  10.004      6.0274      1.9614     -1.6923     -4.4505     -5.9337     -3.7080     -1.6923      1.3627      5.0546    
  8.9196      12.510      15.461      17.540      18.655      18.850      18.278      17.163      15.764      14.339    
  13.066      11.956      11.000      10.191      9.5228      8.9918      8.5909      8.3121      8.1483      8.0942    
  8.1483      8.3121      8.5909      8.9918      9.5228      10.191      11.000      11.956      13.066      14.339    
  15.764      17.163      18.278      18.850      18.655      17.540      15.461      12.510      8.9197      5.0547    
  1.3627     -1.6923     -3.7080     -4.4119     -.35769      1.9614      5.0546      8.5300      11.970      14.998    
  17.328      18.798      19.377      19.150      18.296      17.052      15.676      14.390      13.259      12.272    
  11.424      10.711      10.130      9.6783      9.3480      9.1327      9.0266      9.0266      9.1327      9.3480    
  9.6783      10.130      10.711      11.424      12.272      13.259      14.390      15.676      17.052      18.296    
  19.150      19.377      18.798      17.328      14.998      11.970      8.5300      5.0546      1.9614     -.35768    
 -1.5996     -1.5996      3.6490      6.0274      8.9196      11.970      14.825      17.184      18.837      19.689    
  19.759      19.170      18.119      16.848      15.594      14.476      13.490      12.630      11.896      11.285    
  10.798      10.427      10.169      10.017      9.9666      10.017      10.169      10.427      10.798      11.285    
  11.896      12.630      13.490      14.476      15.594      16.848      18.119      19.170      19.759      19.689    
  18.837      17.184      14.825      11.970      8.9196      6.0274      3.6490      2.0866      1.5421      2.0866    
  7.7837      10.004      12.510      14.998      17.184      18.842      19.831      20.116      19.760      18.914    
  17.790      16.614      15.545      14.595      13.756      13.029      12.415      11.912      11.520      11.233    
  11.044      10.951      10.951      11.044      11.233      11.520      11.912      12.415      13.029      13.756    
  14.595      15.545      16.614      17.790      18.914      19.760      20.116      19.831      18.842      17.184    
  14.998      12.510      10.004      7.7837      6.1255      5.2397      5.2397      6.1255      11.552      13.455    
  15.461      17.328      18.837      19.831      20.233      20.056      19.404      18.447      17.392      16.410    
  15.530      14.746      14.058      13.469      12.979      12.586      12.283      12.066      11.935      11.892    
  11.935      12.066      12.283      12.586      12.979      13.469      14.058      14.746      15.530      16.410    
  17.392      18.447      19.404      20.056      20.233      19.831      18.837      17.328      15.461      13.455    
  11.552      9.9908      8.9674      8.6112      8.9674      9.9908      14.573      16.069      17.540      18.798    
  19.689      20.116      20.056      19.569      18.785      17.879      17.018      16.241      15.545      14.930    
  14.397      13.948      13.572      13.265      13.028      12.864      12.781      12.781      12.864      13.028    
  13.265      13.572      13.948      14.397      14.930      15.545      16.241      17.018      17.879      18.785    
  19.569      20.056      20.116      19.689      18.798      17.540      16.069      14.573      13.244      12.251    
  11.722      11.722      12.251      13.244      16.622      17.691      18.655      19.377      19.759      19.760    
  19.404      18.785      18.045      17.332      16.687      16.108      15.594      15.148      14.763      14.425    
  14.130      13.883      13.694      13.576      13.535      13.576      13.694      13.883      14.130      14.425    
  14.763      15.148      15.594      16.108      16.687      17.332      18.045      18.785      19.404      19.760    
  19.759      19.377      18.655      17.691      16.622      15.595      14.747      14.191      13.997      14.191    
  14.747      15.595      17.642      18.319      18.850      19.150      19.170      18.914      18.447      17.879    
  17.332      16.839      16.398      16.010      15.676      15.380      15.103      14.839      14.598      14.395    
  14.248      14.171      14.171      14.248      14.395      14.598      14.839      15.103      15.380      15.676    
  16.010      16.398      16.839      17.332      17.879      18.447      18.914      19.170      19.150      18.850    
  18.319      17.642      16.927      16.280      15.793      15.533      15.533      15.793      16.280      16.927    
  17.713      18.069      18.278      18.296      18.119      17.790      17.392      17.018      16.687      16.398    
  16.152      15.948      15.764      15.572      15.364      15.149      14.948      14.784      14.676      14.639    
  14.676      14.784      14.948      15.149      15.364      15.572      15.764      15.948      16.152      16.398    
  16.687      17.018      17.392      17.790      18.119      18.296      18.278      18.069      17.713      17.277    
  16.838      16.468      16.222      16.136      16.222      16.468      16.838      17.277      17.017      17.149    
  17.163      17.052      16.848      16.614      16.410      16.241      16.108      16.010      15.948      15.894    
  15.812      15.685      15.523      15.345      15.181      15.054      14.986      14.986      15.054      15.181    
  15.345      15.523      15.685      15.812      15.894      15.948      16.010      16.108      16.241      16.410    
  16.614      16.848      17.052      17.163      17.149      17.017      16.798      16.540      16.293      16.102    
  15.999      15.999      16.102      16.293      16.540      16.798      15.794      15.812      15.764      15.676    
  15.594      15.545      15.530      15.545      15.594      15.676      15.764      15.812      15.794      15.711    
  15.584      15.441      15.313      15.226      15.194      15.226      15.313      15.441      15.584      15.711    
  15.794      15.812      15.764      15.676      15.594      15.545      15.530      15.545      15.594      15.676    
  15.764      15.812      15.794      15.711      15.584      15.441      15.313      15.226      15.194      15.226    
  15.313      15.441      15.584      15.711      14.304      14.320      14.339      14.390      14.476      14.595    
  14.746      14.930      15.148      15.380      15.572      15.685      15.711      15.663      15.570      15.463    
  15.374      15.324      15.324      15.374      15.463      15.570      15.663      15.711      15.685      15.572    
  15.380      15.148      14.930      14.746      14.595      14.476      14.390      14.339      14.320      14.304    
  14.268      14.207      14.130      14.051      13.987      13.952      13.952      13.987      14.051      14.130    
  14.207      14.268      12.797      12.911      13.066      13.259      13.490      13.756      14.058      14.397    
  14.763      15.103      15.364      15.523      15.584      15.570      15.512      15.444      15.392      15.373    
  15.392      15.444      15.512      15.570      15.584      15.523      15.364      15.103      14.763      14.397    
  14.058      13.756      13.490      13.259      13.066      12.911      12.797      12.716      12.650      12.588    
  12.529      12.479      12.445      12.433      12.445      12.479      12.529      12.588      12.650      12.716    
  11.457      11.684      11.956      12.272      12.630      13.029      13.469      13.948      14.425      14.839    
  15.149      15.345      15.441      15.463      15.444      15.414      15.393      15.393      15.414      15.444    
  15.463      15.441      15.345      15.149      14.839      14.425      13.948      13.469      13.029      12.630    
  12.272      11.956      11.684      11.457      11.275      11.134      11.030      10.952      10.892      10.851    
  10.830      10.830      10.851      10.892      10.952      11.030      11.134      11.275      10.302      10.626    
  11.000      11.424      11.896      12.415      12.979      13.572      14.130      14.598      14.948      15.181    
  15.313      15.374      15.392      15.393      15.391      15.393      15.392      15.374      15.313      15.181    
  14.948      14.598      14.130      13.572      12.979      12.415      11.896      11.424      11.000      10.626    
  10.302      10.030      9.8080      9.6320      9.4969      9.3974      9.3288      9.2885      9.2752      9.2885    
  9.3288      9.3974      9.4969      9.6320      9.8080      10.030      9.3188      9.7262      10.191      10.711    
  11.285      11.912      12.586      13.265      13.883      14.395      14.784      15.054      15.226      15.324    
  15.373      15.393      15.393      15.373      15.324      15.226      15.054      14.784      14.395      13.883    
  13.265      12.586      11.912      11.285      10.711      10.191      9.7262      9.3188      8.9689      8.6758    
  8.4364      8.2462      8.1001      7.9937      7.9239      7.8893      7.8893      7.9239      7.9937      8.1001    
  8.2462      8.4364      8.6758      8.9689      8.4946      8.9770      9.5228      10.130      10.798      11.520    
  12.283      13.028      13.694      14.248      14.676      14.986      15.194      15.324      15.392      15.414    
  15.392      15.324      15.194      14.986      14.676      14.248      13.694      13.028      12.283      11.520    
  10.798      10.130      9.5228      8.9770      8.4946      8.0760      7.7206      7.4254      7.1862      6.9976    
  6.8550      6.7549      6.6953      6.6755      6.6953      6.7549      6.8550      6.9976      7.1862      7.4254    
  7.7206      8.0760      7.8212      8.3720      8.9918      9.6783      10.427      11.233      12.066      12.864    
  13.576      14.171      14.639      14.986      15.226      15.374      15.444      15.444      15.374      15.226    
  14.986      14.639      14.171      13.576      12.864      12.066      11.233      10.427      9.6783      8.9918    
  8.3720      7.8212      7.3403      6.9285      6.5830      6.2994      6.0722      5.8959      5.7663      5.6809    
  5.6384      5.6384      5.6809      5.7663      5.8959      6.0722      6.2994      6.5830      6.9285      7.3403    
  7.2900      7.9037      8.5909      9.3480      10.169      11.044      11.935      12.781      13.535      14.171    
  14.676      15.054      15.313      15.463      15.512      15.463      15.313      15.054      14.676      14.171    
  13.535      12.781      11.935      11.044      10.169      9.3480      8.5909      7.9037      7.2900      6.7515    
  6.2876      5.8956      5.5709      5.3077      5.0998      4.9422      4.8314      4.7654      4.7434      4.7654    
  4.8314      4.9422      5.0998      5.3077      5.5709      5.8956      6.2876      6.7515      6.8915      7.5633    
  8.3121      9.1327      10.017      10.951      11.892      12.781      13.576      14.248      14.784      15.181    
  15.441      15.570      15.570      15.441      15.181      14.784      14.248      13.576      12.781      11.892    
  10.951      10.017      9.1327      8.3121      7.5633      6.8915      6.2991      5.7862      5.3503      4.9868    
  4.6893      4.4514      4.2670      4.1317      4.0425      3.9982      3.9982      4.0425      4.1317      4.2670    
  4.4514      4.6893      4.9868      5.3503      5.7862      6.2991      6.6158      7.3423      8.1483      9.0266    
  9.9666      10.951      11.935      12.864      13.694      14.395      14.948      15.345      15.584      15.663    
  15.584      15.345      14.948      14.395      13.694      12.864      11.935      10.951      9.9666      9.0266    
  8.1483      7.3423      6.6158      5.9723      5.4125      4.9344      4.5332      4.2027      3.9356      3.7253    
  3.5663      3.4547      3.3884      3.3664      3.3884      3.4547      3.5663      3.7253      3.9356      4.2027    
  4.5332      4.9344      5.4125      5.9723      6.4543      7.2337      8.0942      9.0266      10.017      11.044    
  12.066      13.028      13.883      14.598      15.149      15.523      15.711      15.711      15.523      15.149    
  14.598      13.883      13.028      12.066      11.044      10.017      9.0266      8.0943      7.2338      6.4543    
  5.7609      5.1552      4.6354      4.1971      3.8337      3.5378      3.3019      3.1197      2.9864      2.8989    
  2.8555      2.8555      2.8989      2.9864      3.1197      3.3019      3.5378      3.8337      4.1971      4.6354    
  5.1552      5.7609      6.4011      7.2337      8.1483      9.1327      10.169      11.233      12.283      13.265    
  14.130      14.839      15.364      15.685      15.794      15.685      15.364      14.839      14.130      13.265    
  12.283      11.233      10.169      9.1327      8.1483      7.2338      6.4011      5.6573      5.0048      4.4427    
  3.9664      3.5695      3.2441      2.9823      2.7769      2.6223      2.5143      2.4504      2.4292      2.4504    
  2.5143      2.6223      2.7769      2.9823      3.2441      3.5695      3.9664      4.4427      5.0048      5.6573    
  6.4543      7.3423      8.3121      9.3480      10.427      11.520      12.586      13.572      14.425      15.103    
  15.572      15.812      15.812      15.572      15.103      14.425      13.572      12.586      11.520      10.427    
  9.3480      8.3121      7.3423      6.4543      5.6573      4.9554      4.3484      3.8320      3.3996      3.0431    
  2.7541      2.5247      2.3484      2.2202      2.1365      2.0952      2.0952      2.1365      2.2202      2.3484    
  2.5247      2.7541      3.0431      3.3996      3.8320      4.3484      4.9554      5.6573      6.6158      7.5633    
  8.5909      9.6783      10.798      11.912      12.979      13.948      14.763      15.380      15.764      15.894    
  15.764      15.380      14.763      13.948      12.979      11.912      10.798      9.6783      8.5909      7.5633    
  6.6158      5.7609      5.0048      4.3484      3.7878      3.3165      2.9260      2.6074      2.3522      2.1531    
  2.0042      1.9009      1.8401      1.8200      1.8401      1.9009      2.0042      2.1531      2.3522      2.6074    
  2.9260      3.3165      3.7878      4.3484      5.0048      5.7609      6.8915      7.9037      8.9918      10.130    
  11.285      12.415      13.469      14.397      15.148      15.676      15.948      15.948      15.676      15.148    
  14.397      13.469      12.415      11.285      10.130      8.9918      7.9037      6.8915      5.9723      5.1552    
  4.4427      3.8320      3.3165      2.8875      2.5356      2.2517      2.0276      1.8565      1.7329      1.6529    
  1.6135      1.6135      1.6528      1.7329      1.8565      2.0276      2.2517      2.5356      2.8875      3.3165    
  3.8320      4.4427      5.1552      5.9723      7.2900      8.3720      9.5228      10.711      11.896      13.029    
  14.058      14.930      15.594      16.010      16.152      16.010      15.594      14.930      14.058      13.029    
  11.896      10.711      9.5228      8.3720      7.2900      6.2991      5.4125      4.6354      3.9664      3.3996    
  2.9260      2.5356      2.2187      1.9662      1.7704      1.6250      1.5249      1.4664      1.4472      1.4664    
  1.5249      1.6250      1.7704      1.9662      2.2187      2.5356      2.9260      3.3996      3.9664      4.6354    
  5.4125      6.2991      7.8212      8.9770      10.191      11.424      12.630      13.756      14.746      15.545    
  16.108      16.398      16.398      16.108      15.545      14.746      13.756      12.630      11.424      10.191    
  8.9770      7.8212      6.7515      5.7862      4.9344      4.1971      3.5695      3.0431      2.6074      2.2517    
  1.9662      1.7421      1.5722      1.4504      1.3719      1.3336      1.3336      1.3719      1.4504      1.5722    
  1.7421      1.9662      2.2517      2.6074      3.0431      3.5695      4.1971      4.9344      5.7862      6.7515    
  8.4945      9.7262      11.000      12.272      13.490      14.595      15.530      16.241      16.687      16.839    
  16.687      16.241      15.530      14.595      13.490      12.272      11.000      9.7262      8.4946      7.3403    
  6.2876      5.3503      4.5332      3.8337      3.2441      2.7541      2.3522      2.0276      1.7704      1.5722    
  1.4259      1.3258      1.2675      1.2484      1.2675      1.3258      1.4259      1.5722      1.7704      2.0276    
  2.3522      2.7541      3.2441      3.8337      4.5332      5.3503      6.2876      7.3403      9.3188      10.626    
  11.956      13.259      14.476      15.545      16.410      17.018      17.332      17.332      17.018      16.410    
  15.545      14.476      13.259      11.956      10.626      9.3188      8.0760      6.9285      5.8956      4.9868    
  4.2027      3.5378      2.9823      2.5247      2.1531      1.8565      1.6250      1.4504      1.3258      1.2458    
  1.2068      1.2068      1.2458      1.3258      1.4504      1.6250      1.8565      2.1531      2.5247      2.9823    
  3.5378      4.2027      4.9868      5.8956      6.9285      8.0760      10.302      11.684      13.066      14.390    
  15.594      16.614      17.392      17.879      18.045      17.879      17.392      16.614      15.594      14.390    
  13.066      11.684      10.302      8.9689      7.7206      6.5830      5.5709      4.6893      3.9356      3.3019    
  2.7769      2.3484      2.0042      1.7329      1.5249      1.3719      1.2675      1.2068      1.1869      1.2068    
  1.2675      1.3719      1.5249      1.7329      2.0042      2.3484      2.7769      3.3019      3.9356      4.6893    
  5.5709      6.5830      7.7206      8.9689      11.457      12.911      14.339      15.676      16.848      17.790    
  18.447      18.785      18.785      18.447      17.790      16.848      15.676      14.339      12.911      11.457    
  10.030      8.6758      7.4254      6.2994      5.3077      4.4514      3.7253      3.1197      2.6223      2.2202    
  1.9009      1.6529      1.4664      1.3336      1.2484      1.2068      1.2068      1.2484      1.3336      1.4664    
  1.6528      1.9009      2.2202      2.6223      3.1197      3.7253      4.4514      5.3077      6.2994      7.4254    
  8.6758      10.030      12.797      14.320      15.764      17.052      18.119      18.914      19.404      19.569    
  19.404      18.914      18.119      17.052      15.764      14.320      12.797      11.275      9.8080      8.4364    
  7.1862      6.0722      5.0998      4.2670      3.5663      2.9864      2.5143      2.1365      1.8401      1.6135    
  1.4472      1.3336      1.2675      1.2458      1.2675      1.3336      1.4472      1.6135      1.8401      2.1365    
  2.5143      2.9864      3.5663      4.2670      5.0998      6.0722      7.1862      8.4364      9.8080      11.275    
  14.304      15.812      17.163      18.296      19.170      19.760      20.056      20.056      19.760      19.170    
  18.296      17.163      15.812      14.304      12.716      11.134      9.6320      8.2462      6.9976      5.8959    
  4.9422      4.1317      3.4547      2.8989      2.4504      2.0952      1.8200      1.6135      1.4664      1.3719    
  1.3258      1.3258      1.3719      1.4664      1.6135      1.8200      2.0952      2.4504      2.8989      3.4547    
  4.1317      4.9422      5.8959      6.9976      8.2462      9.6320      11.134      12.716      15.794      17.149    
  18.278      19.150      19.759      20.116      20.233      20.116      19.759      19.150      18.278      17.149    
  15.794      14.268      12.650      11.030      9.4969      8.1001      6.8550      5.7663      4.8314      4.0425    
  3.3884      2.8555      2.4292      2.0952      1.8401      1.6528      1.5249      1.4504      1.4259      1.4504    
  1.5249      1.6528      1.8401      2.0952      2.4292      2.8555      3.3884      4.0425      4.8314      5.7663    
  6.8550      8.1001      9.4969      11.030      12.650      14.268      17.017      18.069      18.850      19.377    
  19.689      19.831      19.831      19.689      19.377      18.850      18.069      17.017      15.711      14.207    
  12.588      10.952      9.3974      7.9937      6.7549      5.6809      4.7654      3.9982      3.3664      2.8555    
  2.4504      2.1365      1.9009      1.7329      1.6250      1.5722      1.5722      1.6250      1.7329      1.9009    
  2.1365      2.4504      2.8555      3.3664      3.9982      4.7654      5.6809      6.7549      7.9937      9.3974    
  10.952      12.588      14.207      15.711      17.713      18.319      18.655      18.798      18.837      18.842    
  18.837      18.798      18.655      18.319      17.713      16.798      15.584      14.130      12.529      10.892    
  9.3288      7.9239      6.6953      5.6384      4.7434      3.9982      3.3884      2.8989      2.5143      2.2202    
  2.0042      1.8565      1.7704      1.7421      1.7704      1.8565      2.0042      2.2202      2.5143      2.8989    
  3.3884      3.9982      4.7434      5.6384      6.6953      7.9239      9.3288      10.892      12.529      14.130    
  15.584      16.798      17.642      17.691      17.540      17.328      17.184      17.184      17.328      17.540    
  17.691      17.642      17.277      16.540      15.441      14.051      12.479      10.851      9.2885      7.8893    
  6.6755      5.6384      4.7654      4.0425      3.4547      2.9864      2.6223      2.3484      2.1531      2.0276    
  1.9662      1.9662      2.0276      2.1531      2.3484      2.6223      2.9864      3.4547      4.0425      4.7654    
  5.6384      6.6755      7.8893      9.2885      10.851      12.479      14.051      15.441      16.540      17.277    
  16.622      16.069      15.461      14.998      14.825      14.998      15.461      16.069      16.622      16.927    
  16.838      16.293      15.313      13.987      12.445      10.830      9.2752      7.8893      6.6953      5.6809    
  4.8314      4.1317      3.5663      3.1197      2.7769      2.5247      2.3522      2.2517      2.2187      2.2517    
  2.3522      2.5247      2.7769      3.1197      3.5663      4.1317      4.8314      5.6809      6.6953      7.8893    
  9.2752      10.830      12.445      13.987      15.313      16.293      16.838      16.927      14.573      13.455    
  12.510      11.970      11.970      12.510      13.455      14.573      15.595      16.280      16.468      16.102    
  15.226      13.952      12.433      10.830      9.2885      7.9239      6.7549      5.7663      4.9422      4.2670    
  3.7253      3.3019      2.9823      2.7541      2.6074      2.5356      2.5356      2.6074      2.7541      2.9823    
  3.3019      3.7253      4.2670      4.9422      5.7663      6.7549      7.9239      9.2885      10.830      12.433    
  13.952      15.226      16.102      16.468      16.280      15.595      11.552      10.004      8.9197      8.5300    
  8.9196      10.004      11.552      13.244      14.747      15.793      16.222      15.999      15.194      13.952    
  12.445      10.851      9.3288      7.9937      6.8550      5.8959      5.0998      4.4514      3.9356      3.5378    
  3.2441      3.0431      2.9260      2.8875      2.9260      3.0431      3.2441      3.5378      3.9356      4.4514    
  5.0998      5.8959      6.8550      7.9937      9.3288      10.851      12.445      13.952      15.194      15.999    
  16.222      15.793      14.747      13.244      7.7837      6.0274      5.0547      5.0546      6.0274      7.7837    
  9.9908      12.251      14.191      15.533      16.136      15.999      15.226      13.987      12.479      10.892    
  9.3974      8.1001      6.9976      6.0722      5.3077      4.6893      4.2027      3.8337      3.5695      3.3996    
  3.3165      3.3165      3.3996      3.5695      3.8337      4.2027      4.6893      5.3077      6.0722      6.9976    
  8.1001      9.3974      10.892      12.479      13.987      15.226      15.999      16.136      15.533      14.191    
  12.251      9.9908      3.6490      1.9614      1.3627      1.9614      3.6490      6.1255      8.9674      11.722    
  13.997      15.533      16.222      16.102      15.313      14.051      12.529      10.952      9.4969      8.2462    
  7.1862      6.2994      5.5709      4.9868      4.5332      4.1971      3.9664      3.8320      3.7878      3.8320    
  3.9664      4.1971      4.5332      4.9868      5.5709      6.2994      7.1862      8.2462      9.4969      10.952    
  12.529      14.051      15.313      16.102      16.222      15.533      13.997      11.722      8.9674      6.1255    
 -.35770     -1.6923     -1.6923     -.35768      2.0866      5.2397      8.6112      11.722      14.191      15.793    
  16.468      16.293      15.441      14.130      12.588      11.030      9.6320      8.4364      7.4254      6.5830    
  5.8956      5.3503      4.9344      4.6354      4.4427      4.3484      4.3484      4.4427      4.6354      4.9344    
  5.3503      5.8956      6.5830      7.4254      8.4364      9.6320      11.030      12.588      14.130      15.441    
  16.293      16.468      15.793      14.191      11.722      8.6112      5.2397      2.0866     -3.7080     -4.4505    
 -3.7080     -1.5996      1.5421      5.2397      8.9674      12.251      14.747      16.280      16.838      16.540    
  15.584      14.207      12.650      11.134      9.8080      8.6758      7.7206      6.9285      6.2876      5.7862    
  5.4125      5.1552      5.0048      4.9554      5.0048      5.1552      5.4125      5.7862      6.2876      6.9285    
  7.7206      8.6758      9.8080      11.134      12.650      14.207      15.584      16.540      16.838      16.280    
  14.747      12.251      8.9674      5.2397      1.5421     -1.5996     -5.9337     -5.9337     -4.4119     -1.5996    
  2.0866      6.1255      9.9908      13.244      15.595      16.927      17.277      16.798      15.711      14.268    
  12.716      11.275      10.030      8.9689      8.0760      7.3403      6.7515      6.2991      5.9723      5.7609    
  5.6573      5.6573      5.7609      5.9723      6.2991      6.7515      7.3403      8.0760      8.9689      10.030    
  11.275      12.716      14.268      15.711      16.798      17.277      16.927      15.595      13.244      9.9908    
  6.1255      2.0866     -1.5996     -4.4120     -5.9337     -4.4505     -1.6923      1.9614      6.0274      10.004    
  13.455      16.069      17.691      18.319      18.069      17.149      15.812      14.320      12.911      11.684    
  10.626      9.7262      8.9770      8.3720      7.9037      7.5633      7.3423      7.2337      7.2337      7.3423    
  7.5633      7.9037      8.3720      8.9770      9.7262      10.626      11.684      12.911      14.320      15.812    
  17.149      18.069      18.319      17.691      16.069      13.455      10.004      6.0274      1.9614     -1.6923    
 -4.4505     -5.9337     -4.4505     -2.3783     0.76450      4.5664      8.5527      12.264      15.327      17.499    
  18.688      18.935      18.394      17.293      15.894      14.460      13.176      12.057      11.093      10.276    
  9.6017      9.0657      8.6609      8.3795      8.2141      8.1595      8.2141      8.3795      8.6609      9.0657    
  9.6017      10.276      11.093      12.057      13.176      14.460      15.894      17.293      18.394      18.935    
  18.688      17.499      15.327      12.264      8.5527      4.5664     0.76452     -2.3783     -4.4505     -5.1739    
 -1.6923     0.76450      4.0468      7.7437      11.417      14.668      17.197      18.829      19.528      19.381    
  18.569      17.336      15.948      14.639      13.488      12.484      11.620      10.893      10.302      9.8403    
  9.5033      9.2837      9.1755      9.1755      9.2837      9.5033      9.8403      10.302      10.893      11.620    
  12.484      13.488      14.639      15.948      17.336      18.569      19.381      19.528      18.829      17.197    
  14.668      11.417      7.7438      4.0468     0.76452     -1.6923     -3.0067     -3.0067      1.9614      4.5664    