unknown system                          
   1.00000000000000     
     0.000000    2.816500    2.816500
     2.816500    0.000000    2.816500
     2.816500    2.816500    0.000000
   Ge
     2
Direct
  0.000000  0.000000  0.000000
  0.250000  0.250000  0.250000
 
   48   48   48
 -7.4031     -6.6019     -4.3154     -.87362      3.2429      7.4927      11.370      14.487      16.616      17.701    
  17.823      17.168      15.976      14.507      13.008      11.663      10.492      9.4840      8.6311      7.9277    
  7.3679      6.9445      6.6495      6.4758      6.4185      6.4758      6.6495      6.9445      7.3679      7.9277    
  8.6311      9.4840      10.492      11.663      13.008      14.507      15.976      17.168      17.823      17.701    
  16.616      14.487      11.370      7.4927      3.2429     -.87362     -4.3154     -6.6019     -6.6019     -5.0805    
 -2.2507      1.4998      5.6773      9.7694      13.330      16.044      17.751      18.448      18.255      17.376    
  16.066      14.587      13.176      11.934      10.850      9.9182      9.1339      8.4941      7.9941      7.6277    
  7.3882      7.2700      7.2700      7.3882      7.6277      7.9941      8.4941      9.1339      9.9182      10.850    
  11.934      13.176      14.587      16.066      17.376      18.255      18.448      17.751      16.044      13.330    
  9.7694      5.6773      1.4998     -2.2507     -5.0805     -6.6018     -4.3154     -2.2507     0.88111      4.6707    
  8.6461      12.351      15.413      17.592      18.795      19.062      18.544      17.465      16.086      14.663    
  13.376      12.241      11.250      10.401      9.6922      9.1224      8.6879      8.3832      8.2031      8.1435    
  8.2031      8.3832      8.6879      9.1224      9.6922      10.401      11.250      12.241      13.376      14.663    
  16.086      17.465      18.544      19.062      18.795      17.592      15.413      12.351      8.6461      4.6707    
 0.88111     -2.2507     -4.3154     -5.0362     -.87362      1.4998      4.6707      8.2422      11.791      14.931    
  17.371      18.942      19.606      19.447      18.641      17.424      16.055      14.759      13.603      12.581    
  11.689      10.929      10.303      9.8094      9.4450      9.2055      9.0868      9.0868      9.2055      9.4450    
  9.8094      10.303      10.929      11.689      12.581      13.603      14.759      16.055      17.424      18.641    
  19.447      19.606      18.942      17.371      14.931      11.791      8.2422      4.6707      1.4998     -.87362    
 -2.1435     -2.1435      3.2429      5.6773      8.6461      11.791      14.751      17.220      18.981      19.929    
  20.079      19.548      18.533      17.277      16.017      14.876      13.854      12.949      12.163      11.501    
  10.964      10.551      10.259      10.086      10.029      10.086      10.259      10.551      10.964      11.501    
  12.163      12.949      13.854      14.876      16.017      17.277      18.533      19.548      20.079      19.929    
  18.981      17.220      14.751      11.791      8.6461      5.6773      3.2429      1.6466      1.0909      1.6466    
  7.4927      9.7694      12.351      14.931      17.220      18.985      20.076      20.448      20.161      19.361    
  18.258      17.083      15.996      15.011      14.126      13.344      12.672      12.113      11.669      11.339    
  11.121      11.011      11.011      11.121      11.339      11.669      12.113      12.672      13.344      14.126    
  15.011      15.996      17.083      18.258      19.361      20.161      20.448      20.076      18.985      17.220    
  14.931      12.351      9.7694      7.4927      5.7978      4.8941      4.8941      5.7978      11.370      13.330    
  15.413      17.371      18.981      20.076      20.570      20.469      19.871      18.944      17.896      16.901    
  15.990      15.160      14.417      13.766      13.213      12.760      12.405      12.149      11.992      11.940    
  11.992      12.149      12.405      12.760      13.213      13.766      14.417      15.160      15.990      16.901    
  17.896      18.944      19.871      20.469      20.570      20.076      18.981      17.371      15.413      13.330    
  11.370      9.7700      8.7246      8.3614      8.7246      9.7700      14.487      16.044      17.592      18.942    
  19.929      20.448      20.469      20.043      19.297      18.406      17.538      16.735      15.996      15.325    
  14.728      14.211      13.770      13.403      13.116      12.918      12.816      12.816      12.918      13.116    
  13.403      13.770      14.211      14.728      15.325      15.996      16.735      17.538      18.406      19.297    
  20.043      20.469      20.448      19.929      18.942      17.592      16.044      14.487      13.115      12.097    
  11.555      11.555      12.097      13.115      16.616      17.751      18.795      19.606      20.079      20.161    
  19.871      19.297      18.579      17.867      17.202      16.584      16.017      15.507      15.053      14.644    
  14.282      13.977      13.745      13.598      13.549      13.598      13.745      13.977      14.282      14.644    
  15.053      15.507      16.017      16.584      17.202      17.867      18.579      19.297      19.871      20.161    
  20.079      19.606      18.795      17.751      16.616      15.540      14.661      14.087      13.887      14.087    
  14.661      15.540      17.701      18.448      19.062      19.447      19.548      19.361      18.944      18.406    
  17.867      17.361      16.888      16.451      16.055      15.689      15.338      15.003      14.698      14.444    
  14.260      14.164      14.164      14.260      14.444      14.698      15.003      15.338      15.689      16.055    
  16.451      16.888      17.361      17.867      18.406      18.944      19.361      19.548      19.447      19.062    
  18.448      17.701      16.929      16.242      15.731      15.458      15.458      15.731      16.242      16.929    
  17.823      18.255      18.544      18.641      18.533      18.258      17.896      17.538      17.202      16.888    
  16.599      16.338      16.086      15.819      15.538      15.255      14.997      14.789      14.655      14.608    
  14.655      14.789      14.997      15.255      15.538      15.819      16.086      16.338      16.599      16.888    
  17.202      17.538      17.896      18.258      18.533      18.641      18.544      18.255      17.823      17.324    
  16.836      16.431      16.166      16.074      16.166      16.431      16.836      17.324      17.168      17.376    
  17.465      17.424      17.277      17.083      16.901      16.735      16.584      16.451      16.338      16.220    
  16.066      15.866      15.633      15.395      15.182      15.022      14.937      14.937      15.022      15.182    
  15.395      15.633      15.866      16.066      16.220      16.338      16.451      16.584      16.735      16.901    
  17.083      17.277      17.424      17.465      17.376      17.168      16.881      16.565      16.275      16.056    
  15.938      15.938      16.056      16.275      16.565      16.881      15.976      16.066      16.086      16.055    
  16.017      15.996      15.990      15.996      16.017      16.055      16.086      16.066      15.976      15.824    
  15.634      15.440      15.275      15.164      15.126      15.164      15.275      15.440      15.634      15.824    
  15.976      16.066      16.086      16.055      16.017      15.996      15.990      15.996      16.017      16.055    
  16.086      16.066      15.976      15.824      15.634      15.440      15.275      15.164      15.126      15.164    
  15.275      15.440      15.634      15.824      14.507      14.587      14.663      14.759      14.876      15.011    
  15.160      15.325      15.507      15.689      15.819      15.866      15.824      15.714      15.568      15.422    
  15.305      15.242      15.242      15.305      15.422      15.568      15.714      15.824      15.866      15.819    
  15.689      15.507      15.325      15.160      15.011      14.876      14.759      14.663      14.587      14.507    
  14.405      14.281      14.148      14.025      13.931      13.880      13.880      13.931      14.025      14.148    
  14.281      14.405      13.008      13.176      13.376      13.603      13.854      14.126      14.417      14.728    
  15.053      15.338      15.538      15.633      15.634      15.568      15.470      15.373      15.303      15.279    
  15.303      15.373      15.470      15.568      15.634      15.633      15.538      15.338      15.053      14.728    
  14.417      14.126      13.854      13.603      13.376      13.177      13.008      12.869      12.743      12.626    
  12.520      12.434      12.378      12.358      12.378      12.434      12.520      12.626      12.743      12.869    
  11.663      11.934      12.241      12.581      12.949      13.344      13.766      14.211      14.644      15.003    
  15.255      15.395      15.440      15.422      15.373      15.323      15.292      15.292      15.323      15.373    
  15.422      15.440      15.395      15.255      15.003      14.644      14.211      13.766      13.344      12.949    
  12.581      12.241      11.934      11.663      11.431      11.239      11.084      10.959      10.862      10.794    
  10.758      10.758      10.794      10.862      10.959      11.084      11.239      11.431      10.492      10.850    
  11.250      11.689      12.163      12.672      13.213      13.770      14.282      14.698      14.997      15.182    
  15.275      15.305      15.303      15.292      15.287      15.292      15.303      15.305      15.275      15.182    
  14.997      14.698      14.282      13.770      13.213      12.672      12.163      11.689      11.250      10.850    
  10.492      10.179      9.9126      9.6920      9.5149      9.3788      9.2818      9.2235      9.2039      9.2235    
  9.2818      9.3788      9.5149      9.6920      9.9126      10.179      9.4840      9.9182      10.401      10.929    
  11.501      12.113      12.760      13.403      13.977      14.444      14.789      15.022      15.164      15.242    
  15.279      15.292      15.292      15.279      15.242      15.164      15.022      14.789      14.444      13.977    
  13.403      12.760      12.113      11.501      10.929      10.401      9.9182      9.4840      9.1012      8.7711    
  8.4933      8.2659      8.0861      7.9519      7.8623      7.8174      7.8174      7.8623      7.9519      8.0861    
  8.2659      8.4933      8.7711      9.1012      8.6311      9.1339      9.6922      10.303      10.964      11.669    
  12.405      13.116      13.745      14.260      14.655      14.937      15.126      15.242      15.303      15.323    
  15.303      15.242      15.126      14.937      14.655      14.260      13.745      13.116      12.405      11.669    
  10.964      10.303      9.6922      9.1339      8.6312      8.1862      7.8002      7.4724      7.2006      6.9818    
  6.8131      6.6928      6.6205      6.5963      6.6205      6.6928      6.8131      6.9818      7.2006      7.4724    
  7.8002      8.1862      7.9277      8.4941      9.1224      9.8094      10.551      11.339      12.149      12.918    
  13.598      14.164      14.608      14.937      15.164      15.305      15.373      15.373      15.305      15.164    
  14.937      14.608      14.164      13.598      12.918      12.149      11.339      10.551      9.8094      9.1224    
  8.4941      7.9277      7.4256      6.9886      6.6156      6.3039      6.0498      5.8495      5.7005      5.6012    
  5.5515      5.5515      5.6012      5.7005      5.8495      6.0498      6.3039      6.6156      6.9886      7.4256    
  7.3679      7.9941      8.6879      9.4450      10.259      11.121      11.992      12.816      13.549      14.164    
  14.655      15.022      15.275      15.422      15.470      15.422      15.275      15.022      14.655      14.164    
  13.549      12.816      11.992      11.121      10.259      9.4450      8.6879      7.9941      7.3679      6.8119    
  6.3269      5.9115      5.5626      5.2757      5.0462      4.8703      4.7455      4.6707      4.6458      4.6707    
  4.7455      4.8703      5.0462      5.2757      5.5626      5.9115      6.3269      6.8119      6.9445      7.6277    
  8.3832      9.2055      10.086      11.011      11.940      12.816      13.598      14.260      14.789      15.182    
  15.440      15.568      15.568      15.440      15.182      14.789      14.260      13.598      12.816      11.940    
  11.011      10.086      9.2055      8.3832      7.6277      6.9445      6.3368      5.8055      5.3493      4.9645    
  4.6462      4.3889      4.1875      4.0386      3.9399      3.8907      3.8907      3.9399      4.0386      4.1875    
  4.3889      4.6462      4.9645      5.3493      5.8055      6.3368      6.6495      7.3882      8.2031      9.0868    
  10.029      11.011      11.992      12.918      13.745      14.444      14.997      15.395      15.634      15.714    
  15.634      15.395      14.997      14.444      13.745      12.918      11.992      11.011      10.029      9.0868    
  8.2031      7.3882      6.6495      5.9911      5.4143      4.9177      4.4975      4.1483      3.8636      3.6377    
  3.4657      3.3444      3.2721      3.2480      3.2721      3.3444      3.4657      3.6377      3.8636      4.1483    
  4.4975      4.9177      5.4143      5.9911      6.4758      7.2700      8.1435      9.0868      10.086      11.121    
  12.149      13.116      13.977      14.698      15.255      15.633      15.824      15.824      15.633      15.255    
  14.698      13.977      13.116      12.149      11.121      10.086      9.0868      8.1435      7.2700      6.4758    
  5.7663      5.1434      4.6058      4.1496      3.7689      3.4567      3.2063      3.0117      2.8688      2.7747    
  2.7279      2.7279      2.7747      2.8688      3.0117      3.2063      3.4567      3.7689      4.1496      4.6058    
  5.1434      5.7663      6.4185      7.2700      8.2031      9.2055      10.259      11.339      12.405      13.403    
  14.282      15.003      15.538      15.866      15.976      15.866      15.538      15.003      14.282      13.403    
  12.405      11.339      10.259      9.2055      8.2031      7.2700      6.4185      5.6557      4.9845      4.4039    
  3.9098      3.4961      3.1552      2.8795      2.6623      2.4981      2.3832      2.3151      2.2925      2.3151    
  2.3832      2.4981      2.6623      2.8795      3.1552      3.4961      3.9098      4.4039      4.9845      5.6557    
  6.4758      7.3882      8.3832      9.4450      10.551      11.669      12.760      13.770      14.644      15.338    
  15.819      16.066      16.066      15.819      15.338      14.644      13.770      12.760      11.669      10.551    
  9.4450      8.3832      7.3882      6.4758      5.6557      4.9321      4.3048      3.7696      3.3200      2.9481    
  2.6454      2.4044      2.2187      2.0833      1.9948      1.9511      1.9511      1.9948      2.0833      2.2187    
  2.4044      2.6454      2.9481      3.3200      3.7696      4.3048      4.9321      5.6557      6.6495      7.6277    
  8.6879      9.8094      10.964      12.113      13.213      14.211      15.053      15.689      16.086      16.220    
  16.086      15.689      15.053      14.211      13.213      12.113      10.964      9.8094      8.6879      7.6277    
  6.6495      5.7663      4.9845      4.3048      3.7235      3.2338      2.8271      2.4946      2.2276      2.0189    
  1.8626      1.7540      1.6901      1.6690      1.6901      1.7540      1.8626      2.0189      2.2276      2.4946    
  2.8271      3.2338      3.7235      4.3048      4.9845      5.7663      6.9445      7.9941      9.1224      10.303    
  11.501      12.672      13.766      14.728      15.507      16.055      16.338      16.338      16.055      15.507    
  14.728      13.766      12.672      11.501      10.303      9.1224      7.9941      6.9445      5.9911      5.1434    
  4.4039      3.7696      3.2338      2.7874      2.4207      2.1244      1.8903      1.7114      1.5821      1.4984    
  1.4572      1.4572      1.4984      1.5821      1.7114      1.8903      2.1244      2.4207      2.7874      3.2338    
  3.7696      4.4039      5.1434      5.9911      7.3679      8.4941      9.6922      10.929      12.163      13.344    
  14.417      15.325      16.017      16.451      16.599      16.451      16.017      15.325      14.417      13.344    
  12.163      10.929      9.6922      8.4941      7.3679      6.3368      5.4143      4.6058      3.9098      3.3200    
  2.8271      2.4207      2.0905      1.8273      1.6232      1.4716      1.3672      1.3062      1.2862      1.3062    
  1.3672      1.4716      1.6232      1.8273      2.0905      2.4207      2.8271      3.3200      3.9098      4.6058    
  5.4143      6.3368      7.9277      9.1339      10.401      11.689      12.949      14.126      15.160      15.996    
  16.584      16.888      16.888      16.584      15.996      15.160      14.126      12.949      11.689      10.401    
  9.1339      7.9277      6.8119      5.8055      4.9177      4.1496      3.4961      2.9481      2.4946      2.1244    
  1.8273      1.5942      1.4175      1.2908      1.2093      1.1694      1.1694      1.2093      1.2908      1.4175    
  1.5942      1.8273      2.1244      2.4946      2.9481      3.4961      4.1496      4.9177      5.8055      6.8119    
  8.6311      9.9182      11.250      12.581      13.854      15.011      15.990      16.735      17.202      17.361    
  17.202      16.735      15.990      15.011      13.854      12.581      11.250      9.9182      8.6312      7.4256    
  6.3269      5.3493      4.4975      3.7689      3.1552      2.6454      2.2276      1.8903      1.6232      1.4175    
  1.2657      1.1619      1.1015      1.0817      1.1015      1.1619      1.2657      1.4175      1.6232      1.8903    
  2.2276      2.6454      3.1552      3.7689      4.4975      5.3493      6.3269      7.4256      9.4840      10.850    
  12.241      13.603      14.876      15.996      16.901      17.538      17.867      17.867      17.538      16.901    
  15.996      14.876      13.603      12.241      10.850      9.4840      8.1862      6.9886      5.9115      4.9645    
  4.1483      3.4567      2.8795      2.4044      2.0189      1.7114      1.4716      1.2908      1.1619      1.0792    
  1.0389      1.0389      1.0792      1.1619      1.2908      1.4716      1.7114      2.0189      2.4044      2.8795    
  3.4567      4.1483      4.9645      5.9115      6.9886      8.1862      10.492      11.934      13.376      14.759    
  16.017      17.083      17.896      18.406      18.579      18.406      17.896      17.083      16.017      14.759    
  13.376      11.934      10.492      9.1012      7.8002      6.6156      5.5626      4.6462      3.8636      3.2063    
  2.6623      2.2187      1.8626      1.5821      1.3672      1.2093      1.1015      1.0389      1.0183      1.0389    
  1.1015      1.2093      1.3672      1.5821      1.8626      2.2187      2.6623      3.2063      3.8636      4.6462    
  5.5626      6.6156      7.8002      9.1012      11.663      13.176      14.663      16.055      17.277      18.258    
  18.944      19.297      19.297      18.944      18.258      17.277      16.055      14.663      13.177      11.663    
  10.179      8.7711      7.4724      6.3039      5.2757      4.3889      3.6377      3.0117      2.4981      2.0833    
  1.7540      1.4984      1.3062      1.1694      1.0817      1.0389      1.0389      1.0817      1.1694      1.3062    
  1.4984      1.7540      2.0833      2.4981      3.0117      3.6377      4.3889      5.2757      6.3039      7.4724    
  8.7711      10.179      13.008      14.587      16.086      17.424      18.533      19.361      19.871      20.043    
  19.871      19.361      18.533      17.424      16.086      14.587      13.008      11.431      9.9126      8.4933    
  7.2006      6.0498      5.0462      4.1875      3.4657      2.8688      2.3832      1.9948      1.6901      1.4572    
  1.2862      1.1694      1.1015      1.0792      1.1015      1.1694      1.2862      1.4572      1.6901      1.9948    
  2.3832      2.8688      3.4657      4.1875      5.0462      6.0498      7.2006      8.4933      9.9126      11.431    
  14.507      16.066      17.465      18.641      19.548      20.161      20.469      20.469      20.161      19.548    
  18.641      17.465      16.066      14.507      12.869      11.239      9.6920      8.2659      6.9818      5.8495    
  4.8703      4.0386      3.3444      2.7747      2.3151      1.9511      1.6690      1.4572      1.3062      1.2093    
  1.1619      1.1619      1.2093      1.3062      1.4572      1.6690      1.9511      2.3151      2.7747      3.3444    
  4.0386      4.8703      5.8495      6.9818      8.2659      9.6920      11.239      12.869      15.976      17.376    
  18.544      19.447      20.079      20.448      20.570      20.448      20.079      19.447      18.544      17.376    
  15.976      14.405      12.743      11.084      9.5149      8.0861      6.8131      5.7005      4.7455      3.9399    
  3.2721      2.7279      2.2925      1.9511      1.6901      1.4984      1.3672      1.2908      1.2657      1.2908    
  1.3672      1.4984      1.6901      1.9511      2.2925      2.7279      3.2721      3.9399      4.7455      5.7005    
  6.8131      8.0861      9.5149      11.084      12.743      14.405      17.168      18.255      19.062      19.606    
  19.929      20.076      20.076      19.929      19.606      19.062      18.255      17.168      15.824      14.281    
  12.626      10.959      9.3788      7.9519      6.6928      5.6012      4.6707      3.8907      3.2480      2.7279    
  2.3151      1.9948      1.7540      1.5821      1.4716      1.4175      1.4175      1.4716      1.5821      1.7540    
  1.9948      2.3151      2.7279      3.2480      3.8907      4.6707      5.6012      6.6928      7.9519      9.3788    
  10.959      12.626      14.281      15.824      17.823      18.448      18.795      18.942      18.981      18.985    
  18.981      18.942      18.795      18.448      17.823      16.881      15.634      14.148      12.520      10.862    
  9.2818      7.8623      6.6205      5.5515      4.6458      3.8907      3.2721      2.7747      2.3832      2.0833    
  1.8626      1.7114      1.6232      1.5942      1.6232      1.7114      1.8626      2.0833      2.3832      2.7747    
  3.2721      3.8907      4.6458      5.5515      6.6205      7.8623      9.2818      10.862      12.520      14.148    
  15.634      16.881      17.701      17.751      17.592      17.371      17.220      17.220      17.371      17.592    
  17.751      17.701      17.324      16.565      15.440      14.025      12.434      10.794      9.2235      7.8174    
  6.5963      5.5515      4.6707      3.9399      3.3444      2.8688      2.4981      2.2187      2.0189      1.8903    
  1.8273      1.8273      1.8903      2.0189      2.2187      2.4981      2.8688      3.3444      3.9399      4.6707    
  5.5515      6.5963      7.8174      9.2235      10.794      12.434      14.025      15.440      16.565      17.324    
  16.616      16.044      15.413      14.931      14.751      14.931      15.413      16.044      16.616      16.929    
  16.836      16.275      15.275      13.931      12.378      10.758      9.2039      7.8174      6.6205      5.6012    
  4.7455      4.0386      3.4657      3.0117      2.6623      2.4044      2.2276      2.1244      2.0905      2.1244    
  2.2276      2.4044      2.6623      3.0117      3.4657      4.0386      4.7455      5.6012      6.6205      7.8174    
  9.2039      10.758      12.378      13.931      15.275      16.275      16.836      16.929      14.487      13.330    
  12.351      11.791      11.791      12.351      13.330      14.487      15.540      16.242      16.431      16.056    
  15.164      13.880      12.358      10.758      9.2235      7.8623      6.6928      5.7005      4.8703      4.1875    
  3.6377      3.2063      2.8795      2.6454      2.4946      2.4207      2.4207      2.4946      2.6454      2.8795    
  3.2063      3.6377      4.1875      4.8703      5.7005      6.6928      7.8623      9.2235      10.758      12.358    
  13.880      15.164      16.056      16.431      16.242      15.540      11.370      9.7694      8.6461      8.2422    
  8.6461      9.7694      11.370      13.115      14.661      15.731      16.166      15.938      15.126      13.880    
  12.378      10.794      9.2818      7.9519      6.8131      5.8495      5.0462      4.3889      3.8636      3.4567    
  3.1552      2.9481      2.8271      2.7874      2.8271      2.9481      3.1552      3.4567      3.8636      4.3889    
  5.0462      5.8495      6.8131      7.9519      9.2818      10.794      12.378      13.880      15.126      15.938    
  16.166      15.731      14.661      13.115      7.4927      5.6773      4.6707      4.6707      5.6773      7.4927    
  9.7700      12.097      14.087      15.458      16.074      15.938      15.164      13.931      12.434      10.862    
  9.3788      8.0861      6.9818      6.0498      5.2757      4.6462      4.1483      3.7689      3.4961      3.3200    
  3.2338      3.2338      3.3200      3.4961      3.7689      4.1483      4.6462      5.2757      6.0498      6.9818    
  8.0861      9.3788      10.862      12.434      13.931      15.164      15.938      16.074      15.458      14.087    
  12.097      9.7700      3.2429      1.4998     0.88111      1.4998      3.2429      5.7978      8.7246      11.555    
  13.887      15.458      16.166      16.056      15.275      14.025      12.520      10.959      9.5149      8.2659    
  7.2006      6.3039      5.5626      4.9645      4.4975      4.1496      3.9098      3.7696      3.7235      3.7696    
  3.9098      4.1496      4.4975      4.9645      5.5626      6.3039      7.2006      8.2659      9.5149      10.959    
  12.520      14.025      15.275      16.056      16.166      15.458      13.887      11.555      8.7246      5.7978    
 -.87362     -2.2507     -2.2507     -.87362      1.6466      4.8941      8.3614      11.555      14.087      15.731    
  16.431      16.275      15.440      14.148      12.626      11.084      9.6920      8.4933      7.4724      6.6156    
  5.9115      5.3493      4.9177      4.6058      4.4039      4.3048      4.3048      4.4039      4.6058      4.9177    
  5.3493      5.9115      6.6156      7.4724      8.4933      9.6920      11.084      12.626      14.148      15.440    
  16.275      16.431      15.731      14.087      11.555      8.3614      4.8941      1.6466     -4.3154     -5.0805    
 -4.3154     -2.1435      1.0909      4.8941      8.7246      12.097      14.661      16.242      16.836      16.565    
  15.634      14.281      12.743      11.239      9.9126      8.7711      7.8002      6.9886      6.3269      5.8055    
  5.4143      5.1434      4.9845      4.9321      4.9845      5.1434      5.4143      5.8055      6.3269      6.9886    
  7.8002      8.7711      9.9126      11.239      12.743      14.281      15.634      16.565      16.836      16.242    
  14.661      12.097      8.7246      4.8941      1.0909     -2.1435     -6.6019     -6.6018     -5.0362     -2.1435    
  1.6466      5.7978      9.7700      13.115      15.540      16.929      17.324      16.881      15.824      14.405    
  12.869      11.431      10.179      9.1012      8.1862      7.4256      6.8119      6.3368      5.9911      5.7663    
  5.6557      5.6557      5.7663      5.9911      6.3368      6.8119      7.4256      8.1862      9.1012      10.179    
  11.431      12.869      14.405      15.824      16.881      17.324      16.929      15.540      13.115      9.7700    
  5.7978      1.6466     -2.1435     -5.0362     -6.6019     -5.0805     -2.2507      1.4998      5.6773      9.7694    
  13.330      16.044      17.751      18.448      18.255      17.376      16.066      14.587      13.176      11.934    
  10.850      9.9182      9.1339      8.4941      7.9941      7.6277      7.3882      7.2700      7.2700      7.3882    
  7.6277      7.9941      8.4941      9.1339      9.9182      10.850      11.934      13.176      14.587      16.066    
  17.376      18.255      18.448      17.751      16.044      13.330      9.7694      5.6773      1.4998     -2.2507    
 -5.0805     -6.6018     -5.0805     -2.9576     0.26459      4.1675      8.2678      12.097      15.274      17.551    
  18.829      19.149      18.663      17.599      16.220      14.789      13.491      12.346      11.347      10.490    
  9.7747      9.1996      8.7609      8.4533      8.2714      8.2113      8.2714      8.4533      8.7609      9.1996    
  9.7747      10.490      11.347      12.346      13.491      14.789      16.220      17.599      18.663      19.149    
  18.829      17.551      15.274      12.097      8.2678      4.1675     0.26459     -2.9576     -5.0805     -5.8214    
 -2.2507     0.26459      3.6302      7.4300      11.218      14.590      17.235      18.973      19.762      19.685    
  18.922      17.718      16.338      15.019      13.843      12.802      11.894      11.120      10.482      9.9782    
  9.6064      9.3621      9.2411      9.2411      9.3621      9.6064      9.9782      10.482      11.120      11.894    
  12.802      13.843      15.019      16.338      17.718      18.922      19.685      19.762      18.973      17.235    
  14.590      11.218      7.4300      3.6302     0.26459     -2.2507     -3.5952     -3.5952      1.4998      4.1675    