   2   2   0   0
  0.2234237E+02  0.3983133E-09  0.3983133E-09  0.3983133E-09  0.5000000E-15
  1.000000000000000E-004
  CAR 
 unknown system                          
     63.72518846    -12.41318568  301      4.09637278      1.00000000
    -12.413  0.0000E+00  0.0000E+00
    -12.159  0.0000E+00  0.0000E+00
    -11.906  0.0000E+00  0.0000E+00
    -11.652  0.0000E+00  0.0000E+00
    -11.398  0.0000E+00  0.0000E+00
    -11.144  0.0000E+00  0.0000E+00
    -10.890  0.0000E+00  0.0000E+00
    -10.637  0.0000E+00  0.0000E+00
    -10.383  0.0000E+00  0.0000E+00
    -10.129  0.0000E+00  0.0000E+00
     -9.875  0.0000E+00  0.0000E+00
     -9.621  0.0000E+00  0.0000E+00
     -9.368 -0.3150E-30 -0.7994E-31
     -9.114 -0.2998E-05 -0.7610E-06
     -8.860  0.1247E+00  0.3165E-01
     -8.606 -0.1568E-02  0.3125E-01
     -8.352 -0.8790E-04  0.3123E-01
     -8.099  0.9914E+00  0.2828E+00
     -7.845  0.7456E+00  0.4721E+00
     -7.591 -0.1307E-01  0.4688E+00
     -7.337 -0.2900E-14  0.4687E+00
     -7.083  0.2089E-01  0.4741E+00
     -6.830  0.1748E+01  0.9176E+00
     -6.576  0.2012E+00  0.9687E+00
     -6.322  0.2982E+01  0.1726E+01
     -6.068 -0.2666E-01  0.1719E+01
     -5.815  0.0000E+00  0.1719E+01
     -5.561 -0.5098E-51  0.1719E+01
     -5.307 -0.2078E-14  0.1719E+01
     -5.053  0.1646E-01  0.1723E+01
     -4.799  0.2204E+01  0.2282E+01
     -4.546 -0.4524E-02  0.2281E+01
     -4.292 -0.8228E-52  0.2281E+01
     -4.038 -0.6384E-15  0.2281E+01
     -3.784  0.2624E-02  0.2282E+01
     -3.530  0.6525E+00  0.2448E+01
     -3.277  0.2793E+01  0.3156E+01
     -3.023 -0.1459E-26  0.3156E+01
     -2.769 -0.2944E-03  0.3156E+01
     -2.515  0.1483E+01  0.3533E+01
     -2.261 -0.5547E-02  0.3531E+01
     -2.008  0.0000E+00  0.3531E+01
     -1.754  0.0000E+00  0.3531E+01
     -1.500  0.0000E+00  0.3531E+01
     -1.246 -0.1684E-32  0.3531E+01
     -0.992 -0.1419E-05  0.3531E+01
     -0.739  0.1720E+01  0.3968E+01
     -0.485  0.3830E-02  0.3969E+01
     -0.231 -0.2372E-04  0.3969E+01
      0.023  0.2970E+01  0.4723E+01
      0.277  0.2940E+01  0.5469E+01
      0.530 -0.3037E-11  0.5469E+01
      0.784  0.3213E+00  0.5550E+01
      1.038  0.4175E+00  0.5656E+01
      1.292 -0.5385E-05  0.5656E+01
      1.546  0.3044E+01  0.6429E+01
      1.799 -0.9969E-01  0.6403E+01
      2.053  0.1489E+01  0.6781E+01
      2.307 -0.2780E-01  0.6774E+01
      2.561  0.2525E+01  0.7415E+01
      2.814 -0.3419E-01  0.7406E+01
      3.068  0.1952E+01  0.7902E+01
      3.322  0.1769E-01  0.7906E+01
      3.576 -0.2034E-22  0.7906E+01
      3.830 -0.1880E-02  0.7906E+01
      4.083  0.3584E+00  0.7997E+01
      4.337  0.6286E+00  0.8156E+01
      4.591 -0.3565E-01  0.8147E+01
      4.845  0.1733E+01  0.8587E+01
      5.099  0.7649E+00  0.8781E+01
      5.352  0.2831E+01  0.9500E+01
      5.606  0.1237E+00  0.9531E+01
      5.860  0.2014E-02  0.9532E+01
      6.114  0.1476E+01  0.9906E+01
      6.368 -0.7769E-02  0.9904E+01
      6.621  0.3537E+00  0.9994E+01
      6.875  0.7623E+00  0.1019E+02
      7.129 -0.8998E-29  0.1019E+02
      7.383 -0.5937E-04  0.1019E+02
      7.637  0.2526E+01  0.1083E+02
      7.890  0.4291E+00  0.1094E+02
      8.144  0.2725E+00  0.1101E+02
      8.398  0.4165E+01  0.1206E+02
      8.652  0.1324E+01  0.1240E+02
      8.906  0.1626E+01  0.1281E+02
      9.159  0.1503E+01  0.1319E+02
      9.413  0.4228E+01  0.1427E+02
      9.667  0.9888E+00  0.1452E+02
      9.921  0.1653E+01  0.1494E+02
     10.175  0.2952E+01  0.1569E+02
     10.428  0.1271E+00  0.1572E+02
     10.682 -0.1123E-02  0.1572E+02
     10.936 -0.8983E-02  0.1572E+02
     11.190  0.1241E+01  0.1603E+02
     11.444  0.6287E-02  0.1603E+02
     11.697  0.1471E+01  0.1641E+02
     11.951  0.6216E+00  0.1656E+02
     12.205  0.2388E+01  0.1717E+02
     12.459 -0.5403E-01  0.1716E+02
     12.712 -0.3743E-41  0.1716E+02
     12.966 -0.1038E-09  0.1716E+02
     13.220  0.2004E+00  0.1721E+02
     13.474  0.1594E+01  0.1761E+02
     13.728  0.6683E+00  0.1778E+02
     13.981  0.2709E+01  0.1847E+02
     14.235  0.1366E+01  0.1882E+02
     14.489  0.3423E+00  0.1890E+02
     14.743  0.8782E+00  0.1913E+02
     14.997  0.2495E+01  0.1976E+02
     15.250  0.4507E+01  0.2090E+02
     15.504 -0.1084E+00  0.2087E+02
     15.758  0.1592E+01  0.2128E+02
     16.012  0.3545E+01  0.2218E+02
     16.266  0.3868E+01  0.2316E+02
     16.519  0.2030E+01  0.2368E+02
     16.773  0.1501E+01  0.2406E+02
     17.027  0.1843E+01  0.2452E+02
     17.281  0.2838E+01  0.2524E+02
     17.535  0.1469E+01  0.2562E+02
     17.788  0.1530E+01  0.2601E+02
     18.042  0.1004E+00  0.2603E+02
     18.296 -0.1199E-34  0.2603E+02
     18.550 -0.2722E-06  0.2603E+02
     18.804  0.2034E+01  0.2655E+02
     19.057 -0.6380E-01  0.2653E+02
     19.311  0.0000E+00  0.2653E+02
     19.565 -0.4552E-71  0.2653E+02
     19.819 -0.1128E-25  0.2653E+02
     20.073 -0.7061E-03  0.2653E+02
     20.326  0.2969E+01  0.2728E+02
     20.580  0.8176E+00  0.2749E+02
     20.834  0.2125E+01  0.2803E+02
     21.088  0.9656E+00  0.2828E+02
     21.341  0.5528E+00  0.2842E+02
     21.595  0.2017E+01  0.2893E+02
     21.849  0.6855E+01  0.3067E+02
     22.103 -0.4754E-01  0.3066E+02
     22.357 -0.2665E-01  0.3065E+02
     22.610  0.3882E+01  0.3163E+02
     22.864  0.4278E+01  0.3272E+02
     23.118  0.2245E+01  0.3329E+02
     23.372  0.5421E+01  0.3467E+02
     23.626  0.3181E+01  0.3547E+02
     23.879  0.3332E+01  0.3632E+02
     24.133  0.3448E+00  0.3641E+02
     24.387 -0.1479E-01  0.3640E+02
     24.641  0.3318E+01  0.3724E+02
     24.895  0.3909E+00  0.3734E+02
     25.148  0.9624E-01  0.3737E+02
     25.402  0.2321E+01  0.3796E+02
     25.656  0.4044E+01  0.3898E+02
     25.910 -0.5827E-01  0.3897E+02
     26.164  0.0000E+00  0.3897E+02
     26.417  0.0000E+00  0.3897E+02
     26.671 -0.4707E-28  0.3897E+02
     26.925 -0.1072E-03  0.3897E+02
     27.179  0.2992E+01  0.3973E+02
     27.433 -0.3718E-01  0.3972E+02
     27.686  0.1748E+01  0.4016E+02
     27.940  0.2684E+01  0.4084E+02
     28.194  0.1954E+01  0.4134E+02
     28.448  0.1371E+01  0.4169E+02
     28.702  0.9776E+00  0.4194E+02
     28.955  0.4033E+01  0.4296E+02
     29.209  0.2717E+00  0.4303E+02
     29.463  0.2722E+01  0.4372E+02
     29.717  0.3159E+01  0.4452E+02
     29.971  0.3509E+01  0.4541E+02
     30.224  0.2296E+01  0.4599E+02
     30.478  0.3085E+01  0.4678E+02
     30.732  0.3787E+01  0.4774E+02
     30.986  0.2616E+01  0.4840E+02
     31.239  0.9029E+00  0.4863E+02
     31.493  0.3017E+01  0.4940E+02
     31.747  0.3306E+01  0.5024E+02
     32.001  0.5481E+01  0.5163E+02
     32.255  0.2972E+01  0.5238E+02
     32.508  0.7160E+00  0.5256E+02
     32.762 -0.1594E-01  0.5256E+02
     33.016  0.1740E+01  0.5300E+02
     33.270  0.3368E+01  0.5385E+02
     33.524  0.3159E+01  0.5466E+02
     33.777  0.1227E+00  0.5469E+02
     34.031  0.1983E+01  0.5519E+02
     34.285 -0.1276E-01  0.5519E+02
     34.539 -0.1131E-08  0.5519E+02
     34.793  0.2384E+01  0.5579E+02
     35.046  0.5711E+00  0.5594E+02
     35.300  0.1053E+01  0.5620E+02
     35.554  0.9171E+00  0.5644E+02
     35.808  0.7600E+00  0.5663E+02
     36.062 -0.2753E-01  0.5662E+02
     36.315  0.4985E+00  0.5675E+02
     36.569  0.5244E+01  0.5808E+02
     36.823  0.6567E+00  0.5825E+02
     37.077  0.5029E+01  0.5952E+02
     37.331  0.2610E+01  0.6019E+02
     37.584  0.1729E+01  0.6063E+02
     37.838  0.1733E+01  0.6106E+02
     38.092  0.3391E+01  0.6193E+02
     38.346  0.3017E+01  0.6269E+02
     38.600  0.3725E+01  0.6364E+02
     38.853  0.2221E+01  0.6420E+02
     39.107  0.1969E+01  0.6470E+02
     39.361  0.6917E+01  0.6646E+02
     39.615  0.4852E+01  0.6769E+02
     39.868  0.5329E+01  0.6904E+02
     40.122  0.3505E+01  0.6993E+02
     40.376  0.2034E+01  0.7045E+02
     40.630 -0.2968E-01  0.7044E+02
     40.884 -0.2456E-19  0.7044E+02
     41.137 -0.2608E-01  0.7043E+02
     41.391  0.1504E+01  0.7081E+02
     41.645 -0.1058E-01  0.7081E+02
     41.899  0.2525E+01  0.7145E+02
     42.153  0.6871E+00  0.7163E+02
     42.406 -0.6091E-02  0.7162E+02
     42.660  0.5170E+01  0.7294E+02
     42.914  0.3018E+01  0.7370E+02
     43.168  0.6841E+00  0.7388E+02
     43.422 -0.6382E-02  0.7387E+02
     43.675  0.1188E+01  0.7417E+02
     43.929  0.1525E+01  0.7456E+02
     44.183  0.1611E+01  0.7497E+02
     44.437 -0.1461E+00  0.7493E+02
     44.691  0.4005E+01  0.7595E+02
     44.944  0.4966E+01  0.7721E+02
     45.198  0.6645E+01  0.7890E+02
     45.452  0.7808E+00  0.7909E+02
     45.706 -0.5709E-01  0.7908E+02
     45.960  0.6158E+01  0.8064E+02
     46.213  0.3878E+01  0.8163E+02
     46.467  0.6959E+00  0.8180E+02
     46.721  0.1485E+01  0.8218E+02
     46.975  0.2196E+01  0.8274E+02
     47.229  0.4564E+01  0.8390E+02
     47.482  0.1780E+01  0.8435E+02
     47.736  0.1829E+01  0.8481E+02
     47.990 -0.4766E-01  0.8480E+02
     48.244  0.2607E+01  0.8546E+02
     48.498  0.1381E+01  0.8581E+02
     48.751 -0.5704E-01  0.8580E+02
     49.005  0.2650E+01  0.8647E+02
     49.259  0.4379E+01  0.8758E+02
     49.513  0.3624E+01  0.8850E+02
     49.766  0.4269E+01  0.8959E+02
     50.020  0.2732E+01  0.9028E+02
     50.274  0.3166E+01  0.9108E+02
     50.528  0.2508E+01  0.9172E+02
     50.782  0.1474E+01  0.9209E+02
     51.035  0.2686E+01  0.9277E+02
     51.289  0.2445E+01  0.9340E+02
     51.543  0.6042E+01  0.9493E+02
     51.797 -0.2364E+00  0.9487E+02
     52.051  0.4824E+01  0.9609E+02
     52.304  0.2609E+01  0.9676E+02
     52.558  0.3249E+01  0.9758E+02
     52.812  0.4055E+00  0.9768E+02
     53.066  0.1005E+01  0.9794E+02
     53.320 -0.3238E-07  0.9794E+02
     53.573  0.2374E+01  0.9854E+02
     53.827  0.3069E+01  0.9932E+02
     54.081  0.1452E+01  0.9969E+02
     54.335  0.1018E+01  0.9995E+02
     54.589  0.5128E+00  0.1001E+03
     54.842  0.2582E+01  0.1007E+03
     55.096  0.3177E+00  0.1008E+03
     55.350  0.7409E+00  0.1010E+03
     55.604  0.1891E+01  0.1015E+03
     55.858  0.5835E+01  0.1030E+03
     56.111  0.4181E+01  0.1040E+03
     56.365  0.8990E+00  0.1042E+03
     56.619  0.1504E+01  0.1046E+03
     56.873  0.6332E+01  0.1062E+03
     57.127  0.2244E+01  0.1068E+03
     57.380  0.2203E+01  0.1074E+03
     57.634  0.2574E+01  0.1080E+03
     57.888  0.3372E+01  0.1089E+03
     58.142  0.3423E+01  0.1097E+03
     58.396  0.2529E+00  0.1098E+03
     58.649  0.3300E+01  0.1106E+03
     58.903  0.1130E+01  0.1109E+03
     59.157  0.5069E+00  0.1111E+03
     59.411 -0.2637E-34  0.1111E+03
     59.664 -0.2158E-06  0.1111E+03
     59.918  0.7649E+00  0.1113E+03
     60.172 -0.6372E-01  0.1112E+03
     60.426  0.2993E+01  0.1120E+03
     60.680  0.0000E+00  0.1120E+03
     60.933  0.0000E+00  0.1120E+03
     61.187  0.0000E+00  0.1120E+03
     61.441  0.0000E+00  0.1120E+03
     61.695  0.0000E+00  0.1120E+03
     61.949  0.0000E+00  0.1120E+03
     62.202  0.0000E+00  0.1120E+03
     62.456  0.0000E+00  0.1120E+03
     62.710  0.0000E+00  0.1120E+03
     62.964  0.0000E+00  0.1120E+03
     63.218  0.0000E+00  0.1120E+03
     63.471  0.0000E+00  0.1120E+03
     63.725  0.0000E+00  0.1120E+03
