   2   2   0   0
  0.2234237E+02  0.3983133E-09  0.3983133E-09  0.3983133E-09  0.5000000E-15
  1.000000000000000E-004
  CAR 
 unknown system                          
     63.32833651    -12.33629150  301      4.14537035      1.00000000
    -12.336  0.0000E+00  0.0000E+00
    -12.084  0.0000E+00  0.0000E+00
    -11.832  0.0000E+00  0.0000E+00
    -11.580  0.0000E+00  0.0000E+00
    -11.327  0.0000E+00  0.0000E+00
    -11.075  0.0000E+00  0.0000E+00
    -10.823  0.0000E+00  0.0000E+00
    -10.571  0.0000E+00  0.0000E+00
    -10.319  0.0000E+00  0.0000E+00
    -10.066  0.0000E+00  0.0000E+00
     -9.814  0.0000E+00  0.0000E+00
     -9.562  0.0000E+00  0.0000E+00
     -9.310 -0.1757E-29 -0.4432E-30
     -9.057 -0.8080E-05 -0.2038E-05
     -8.805  0.2976E+00  0.7505E-01
     -8.553 -0.3862E-02  0.7407E-01
     -8.301  0.0000E+00  0.7407E-01
     -8.049 -0.6232E-32  0.7407E-01
     -7.796 -0.3232E-05  0.7407E-01
     -7.544  0.2426E+01  0.6860E+00
     -7.292 -0.7662E-01  0.6667E+00
     -7.040  0.1821E+01  0.1126E+01
     -6.788 -0.5911E-01  0.1111E+01
     -6.535  0.0000E+00  0.1111E+01
     -6.283 -0.2841E-28  0.1111E+01
     -6.031 -0.1082E-03  0.1111E+01
     -5.779  0.3568E+01  0.2011E+01
     -5.526 -0.4404E-01  0.2000E+01
     -5.274  0.0000E+00  0.2000E+01
     -5.022  0.0000E+00  0.2000E+01
     -4.770  0.0000E+00  0.2000E+01
     -4.518 -0.3555E-66  0.2000E+01
     -4.265 -0.8229E-23  0.2000E+01
     -4.013 -0.6795E-02  0.1998E+01
     -3.761  0.3533E+01  0.2889E+01
     -3.509 -0.1919E-02  0.2889E+01
     -3.257  0.0000E+00  0.2889E+01
     -3.004  0.0000E+00  0.2889E+01
     -2.752 -0.6515E-48  0.2889E+01
     -2.500 -0.9227E-13  0.2889E+01
     -2.248  0.1854E+00  0.2936E+01
     -1.995  0.3926E+01  0.3926E+01
     -1.743  0.0000E+00  0.3926E+01
     -1.491  0.0000E+00  0.3926E+01
     -1.239  0.0000E+00  0.3926E+01
     -0.987 -0.2607E-28  0.3926E+01
     -0.734 -0.1048E-03  0.3926E+01
     -0.482  0.3569E+01  0.4826E+01
     -0.230 -0.4470E-01  0.4815E+01
      0.022  0.0000E+00  0.4815E+01
      0.274  0.0000E+00  0.4815E+01
      0.527  0.0000E+00  0.4815E+01
      0.779 -0.1983E-48  0.4815E+01
      1.031 -0.6938E-13  0.4815E+01
      1.283  0.2629E+00  0.4881E+01
      1.536  0.3182E+01  0.5684E+01
      1.788  0.3604E+01  0.6593E+01
      2.040  0.0000E+00  0.6593E+01
      2.292 -0.5471E-42  0.6593E+01
      2.544 -0.1432E-09  0.6593E+01
      2.797  0.2721E+01  0.7279E+01
      3.049  0.1978E+01  0.7778E+01
      3.301  0.0000E+00  0.7778E+01
      3.553 -0.1837E-33  0.7778E+01
      3.805 -0.4260E-06  0.7778E+01
      4.058  0.9121E+00  0.8008E+01
      4.310  0.2607E+00  0.8074E+01
      4.562  0.2424E+01  0.8685E+01
      4.814  0.1689E+01  0.9111E+01
      5.067 -0.3415E-17  0.9111E+01
      5.319 -0.1061E+00  0.9084E+01
      5.571  0.3630E+01  0.1000E+02
      5.823 -0.1877E-01  0.9995E+01
      6.075  0.1781E+01  0.1044E+02
      6.328 -0.3057E-04  0.1044E+02
      6.580  0.8915E+00  0.1067E+02
      6.832 -0.1039E-01  0.1067E+02
      7.084 -0.1482E-67  0.1067E+02
      7.337 -0.1399E-23  0.1067E+02
      7.589 -0.4955E-02  0.1067E+02
      7.841  0.4709E+01  0.1185E+02
      8.093 -0.4897E-02  0.1185E+02
      8.345  0.0000E+00  0.1185E+02
      8.598  0.0000E+00  0.1185E+02
      8.850  0.0000E+00  0.1185E+02
      9.102  0.0000E+00  0.1185E+02
      9.354 -0.2496E-28  0.1185E+02
      9.606 -0.1032E-03  0.1185E+02
      9.859  0.3569E+01  0.1275E+02
     10.111 -0.4503E-01  0.1274E+02
     10.363 -0.1952E+00  0.1269E+02
     10.615  0.7538E+01  0.1459E+02
     10.868 -0.9096E-04  0.1459E+02
     11.120  0.2139E+01  0.1513E+02
     11.372  0.7310E+01  0.1698E+02
     11.624 -0.5084E-01  0.1696E+02
     11.876  0.9820E+00  0.1721E+02
     12.129  0.1368E+01  0.1756E+02
     12.381 -0.6654E-04  0.1756E+02
     12.633  0.1781E+01  0.1800E+02
     12.885  0.8374E+01  0.2012E+02
     13.137 -0.1771E+00  0.2007E+02
     13.390  0.5955E+00  0.2022E+02
     13.642  0.0000E+00  0.2022E+02
     13.894  0.0000E+00  0.2022E+02
     14.146 -0.6667E-51  0.2022E+02
     14.399 -0.1796E-14  0.2022E+02
     14.651  0.6015E-02  0.2022E+02
     14.903  0.8750E+00  0.2044E+02
     15.155  0.1797E+01  0.2090E+02
     15.407 -0.3444E-01  0.2089E+02
     15.660 -0.1680E-15  0.2089E+02
     15.912 -0.5499E-01  0.2088E+02
     16.164  0.1817E+01  0.2133E+02
     16.416 -0.7174E-02  0.2133E+02
     16.668  0.2357E+01  0.2193E+02
     16.921 -0.7285E-03  0.2193E+02
     17.173 -0.1810E-34  0.2193E+02
     17.425 -0.3548E-06  0.2193E+02
     17.677  0.3620E+01  0.2284E+02
     17.930  0.3653E+01  0.2376E+02
     18.182  0.6874E-01  0.2378E+02
     18.434  0.3641E+01  0.2470E+02
     18.686 -0.1167E+00  0.2467E+02
     18.938  0.1330E+01  0.2500E+02
     19.191  0.4323E+00  0.2511E+02
     19.443  0.7868E+01  0.2710E+02
     19.695  0.3881E+01  0.2807E+02
     19.947 -0.9545E-03  0.2807E+02
     20.199 -0.1123E-31  0.2807E+02
     20.452 -0.5721E-05  0.2807E+02
     20.704  0.4136E+01  0.2912E+02
     20.956  0.3487E+01  0.3000E+02
     21.208  0.8314E+01  0.3209E+02
     21.461 -0.7693E-01  0.3207E+02
     21.713 -0.1923E-11  0.3207E+02
     21.965  0.5366E+00  0.3221E+02
     22.217  0.3361E+01  0.3306E+02
     22.469  0.4920E+01  0.3430E+02
     22.722 -0.7271E-02  0.3430E+02
     22.974  0.0000E+00  0.3430E+02
     23.226  0.0000E+00  0.3430E+02
     23.478  0.0000E+00  0.3430E+02
     23.731 -0.1464E-48  0.3430E+02
     23.983 -0.5909E-13  0.3430E+02
     24.235  0.2332E+00  0.3436E+02
     24.487  0.5641E+01  0.3578E+02
     24.739 -0.6070E-03  0.3578E+02
     24.992 -0.7987E-46  0.3578E+02
     25.244 -0.1526E-11  0.3578E+02
     25.496  0.8428E+00  0.3599E+02
     25.748  0.2680E+01  0.3667E+02
     26.000  0.4956E+01  0.3792E+02
     26.253  0.1979E+01  0.3842E+02
     26.505  0.3639E+01  0.3933E+02
     26.757  0.0000E+00  0.3933E+02
     27.009 -0.3900E-54  0.3933E+02
     27.262 -0.4568E-16  0.3933E+02
     27.514 -0.6193E-01  0.3932E+02
     27.766  0.1824E+01  0.3978E+02
     28.018 -0.2535E-18  0.3978E+02
     28.270 -0.3278E-01  0.3977E+02
     28.523  0.2676E+01  0.4044E+02
     28.775  0.3589E+01  0.4135E+02
     29.027  0.3499E+01  0.4223E+02
     29.279  0.3198E+01  0.4304E+02
     29.531  0.5102E+01  0.4433E+02
     29.784  0.4082E+01  0.4536E+02
     30.036  0.4907E+01  0.4659E+02
     30.288  0.7928E+00  0.4679E+02
     30.540  0.6604E+01  0.4846E+02
     30.793 -0.5404E-01  0.4844E+02
     31.045 -0.5123E-05  0.4844E+02
     31.297  0.2625E+01  0.4911E+02
     31.549  0.7958E+01  0.5111E+02
     31.801 -0.1383E+00  0.5108E+02
     32.054  0.7181E+01  0.5289E+02
     32.306  0.2877E+01  0.5362E+02
     32.558  0.6428E+00  0.5378E+02
     32.810  0.1789E+01  0.5423E+02
     33.062 -0.2708E-01  0.5422E+02
     33.315  0.1263E+01  0.5454E+02
     33.567  0.1087E+01  0.5481E+02
     33.819  0.0000E+00  0.5481E+02
     34.071  0.0000E+00  0.5481E+02
     34.324  0.0000E+00  0.5481E+02
     34.576  0.0000E+00  0.5481E+02
     34.828  0.0000E+00  0.5481E+02
     35.080  0.0000E+00  0.5481E+02
     35.332  0.0000E+00  0.5481E+02
     35.585 -0.1055E-33  0.5481E+02
     35.837 -0.8895E-06  0.5481E+02
     36.089  0.4853E+01  0.5604E+02
     36.341 -0.1545E+00  0.5600E+02
     36.594  0.2336E+01  0.5659E+02
     36.846  0.6107E+01  0.5813E+02
     37.098  0.3892E+01  0.5911E+02
     37.350  0.1461E+01  0.5948E+02
     37.602  0.9111E+01  0.6178E+02
     37.855  0.3534E+01  0.6267E+02
     38.107  0.3564E+01  0.6357E+02
     38.359 -0.4865E-01  0.6356E+02
     38.611  0.5814E+01  0.6502E+02
     38.863  0.2156E+01  0.6557E+02
     39.116 -0.6734E-01  0.6555E+02
     39.368  0.4581E+01  0.6670E+02
     39.620  0.4387E+00  0.6681E+02
     39.872  0.0000E+00  0.6681E+02
     40.125 -0.6984E-36  0.6681E+02
     40.377 -0.8563E-07  0.6681E+02
     40.629  0.3526E+01  0.6770E+02
     40.881  0.1691E+01  0.6813E+02
     41.133  0.3594E+01  0.6904E+02
     41.386 -0.1246E-03  0.6904E+02
     41.638  0.3566E+01  0.6994E+02
     41.890  0.4504E+01  0.7107E+02
     42.142  0.4266E+01  0.7215E+02
     42.394 -0.3511E-03  0.7215E+02
     42.647  0.4760E+01  0.7335E+02
     42.899  0.5245E+00  0.7348E+02
     43.151  0.5396E+01  0.7484E+02
     43.403  0.2242E+01  0.7541E+02
     43.656  0.3293E+00  0.7549E+02
     43.908  0.4370E+01  0.7659E+02
     44.160  0.6244E+00  0.7675E+02
     44.412  0.2437E+00  0.7681E+02
     44.664  0.3534E+01  0.7770E+02
     44.917  0.6445E+01  0.7933E+02
     45.169  0.4577E+01  0.8048E+02
     45.421  0.4159E+00  0.8059E+02
     45.673  0.4537E+01  0.8173E+02
     45.925 -0.1121E+00  0.8170E+02
     46.178 -0.2234E-01  0.8170E+02
     46.430  0.4114E+01  0.8274E+02
     46.682  0.9018E+00  0.8296E+02
     46.934 -0.3390E-03  0.8296E+02
     47.187 -0.3501E-09  0.8296E+02
     47.439  0.2394E+01  0.8357E+02
     47.691  0.1130E+01  0.8385E+02
     47.943  0.3637E+01  0.8477E+02
     48.195 -0.1125E+00  0.8474E+02
     48.448 -0.3168E-09  0.8474E+02
     48.700  0.2365E+01  0.8534E+02
     48.952  0.1159E+01  0.8563E+02
     49.204  0.5237E+01  0.8695E+02
     49.456  0.4915E-01  0.8696E+02
     49.709 -0.2854E-19  0.8696E+02
     49.961 -0.6347E-01  0.8695E+02
     50.213  0.5057E+01  0.8822E+02
     50.465  0.8650E+00  0.8844E+02
     50.718  0.9708E+01  0.9089E+02
     50.970 -0.3124E-05  0.9089E+02
     51.222  0.3482E+01  0.9177E+02
     51.474  0.8260E+01  0.9385E+02
     51.726  0.1768E+01  0.9430E+02
     51.979  0.2231E+00  0.9435E+02
     52.231  0.6499E+00  0.9452E+02
     52.483  0.2412E+01  0.9512E+02
     52.735  0.5942E+01  0.9662E+02
     52.988 -0.1232E+00  0.9659E+02
     53.240  0.5999E+01  0.9811E+02
     53.492  0.1049E+01  0.9837E+02
     53.744  0.6546E+01  0.1000E+03
     53.996  0.3440E+01  0.1009E+03
     54.249  0.2167E+01  0.1014E+03
     54.501  0.1945E+01  0.1019E+03
     54.753 -0.2233E-03  0.1019E+03
     55.005  0.3555E+01  0.1028E+03
     55.257  0.8957E+00  0.1030E+03
     55.510  0.2598E+01  0.1037E+03
     55.762 -0.1202E-19  0.1037E+03
     56.014 -0.4428E-01  0.1037E+03
     56.266  0.7099E+01  0.1055E+03
     56.519 -0.7736E-01  0.1055E+03
     56.771  0.2421E+01  0.1061E+03
     57.023 -0.5932E-01  0.1061E+03
     57.275  0.4782E+01  0.1073E+03
     57.527 -0.2365E-01  0.1073E+03
     57.780 -0.4963E-01  0.1072E+03
     58.032  0.5340E+01  0.1086E+03
     58.284 -0.6522E-01  0.1086E+03
     58.536  0.1011E+02  0.1111E+03
     58.788  0.1704E+01  0.1116E+03
     59.041  0.0000E+00  0.1116E+03
     59.293 -0.1085E-60  0.1116E+03
     59.545 -0.9665E-20  0.1116E+03
     59.797 -0.2317E-01  0.1115E+03
     60.050  0.1785E+01  0.1120E+03
     60.302  0.0000E+00  0.1120E+03
     60.554  0.0000E+00  0.1120E+03
     60.806  0.0000E+00  0.1120E+03
     61.058  0.0000E+00  0.1120E+03
     61.311  0.0000E+00  0.1120E+03
     61.563  0.0000E+00  0.1120E+03
     61.815  0.0000E+00  0.1120E+03
     62.067  0.0000E+00  0.1120E+03
     62.319  0.0000E+00  0.1120E+03
     62.572  0.0000E+00  0.1120E+03
     62.824  0.0000E+00  0.1120E+03
     63.076  0.0000E+00  0.1120E+03
     63.328  0.0000E+00  0.1120E+03
