   2   2   0   0
  0.2234237E+02  0.3983133E-09  0.3983133E-09  0.3983133E-09  0.5000000E-15
  1.000000000000000E-004
  CAR 
 unknown system                          
     63.52832611    -12.42952777  301      4.00412411      1.00000000
    -12.430  0.0000E+00  0.0000E+00
    -12.176  0.0000E+00  0.0000E+00
    -11.923  0.0000E+00  0.0000E+00
    -11.670  0.0000E+00  0.0000E+00
    -11.417  0.0000E+00  0.0000E+00
    -11.164  0.0000E+00  0.0000E+00
    -10.910  0.0000E+00  0.0000E+00
    -10.657  0.0000E+00  0.0000E+00
    -10.404  0.0000E+00  0.0000E+00
    -10.151  0.0000E+00  0.0000E+00
     -9.898 -0.2514E-37 -0.6366E-38
     -9.644 -0.5306E-20 -0.1343E-20
     -9.391 -0.2444E-08 -0.6188E-09
     -9.138 -0.1425E-02 -0.3608E-03
     -8.885  0.6555E-01  0.1624E-01
     -8.632 -0.1682E-01  0.1198E-01
     -8.378  0.5730E+00  0.1570E+00
     -8.125  0.3311E+00  0.2409E+00
     -7.872 -0.2114E-01  0.2355E+00
     -7.619  0.7890E+00  0.4353E+00
     -7.366 -0.8094E-01  0.4148E+00
     -7.112  0.2154E+01  0.9602E+00
     -6.859 -0.6417E-01  0.9440E+00
     -6.606 -0.5609E-01  0.9298E+00
     -6.353  0.1969E+01  0.1428E+01
     -6.100  0.6301E-01  0.1444E+01
     -5.847  0.1455E+01  0.1813E+01
     -5.593 -0.1854E-01  0.1808E+01
     -5.340  0.2751E+00  0.1878E+01
     -5.087  0.4851E+00  0.2000E+01
     -4.834 -0.1386E-01  0.1997E+01
     -4.581  0.7584E+00  0.2189E+01
     -4.327  0.1223E-01  0.2192E+01
     -4.074 -0.2639E-02  0.2191E+01
     -3.821  0.8665E+00  0.2411E+01
     -3.568  0.2211E+01  0.2971E+01
     -3.315  0.3425E+00  0.3057E+01
     -3.061  0.4772E+00  0.3178E+01
     -2.808  0.2293E-01  0.3184E+01
     -2.555 -0.5303E-01  0.3171E+01
     -2.302  0.1623E+01  0.3582E+01
     -2.049 -0.5365E-01  0.3568E+01
     -1.795 -0.9018E-02  0.3566E+01
     -1.542  0.7263E+00  0.3750E+01
     -1.289  0.4106E-01  0.3760E+01
     -1.036 -0.2299E-04  0.3760E+01
     -0.783 -0.1317E-09  0.3760E+01
     -0.529 -0.2981E-02  0.3759E+01
     -0.276  0.9533E+00  0.4001E+01
     -0.023  0.1269E+01  0.4322E+01
      0.230  0.2504E+01  0.4956E+01
      0.483 -0.5177E-01  0.4943E+01
      0.737  0.1316E+01  0.5276E+01
      0.990  0.2856E+01  0.5999E+01
      1.243  0.1151E+01  0.6290E+01
      1.496 -0.2756E-01  0.6283E+01
      1.749  0.1442E+01  0.6649E+01
      2.002  0.1376E+01  0.6997E+01
      2.256  0.5817E+00  0.7144E+01
      2.509  0.5371E+00  0.7280E+01
      2.762  0.8645E+00  0.7499E+01
      3.015  0.7968E+00  0.7701E+01
      3.268  0.8596E+00  0.7918E+01
      3.522  0.1324E+00  0.7952E+01
      3.775 -0.6441E-02  0.7950E+01
      4.028  0.2002E+00  0.8001E+01
      4.281  0.5336E+00  0.8136E+01
      4.534  0.4223E+00  0.8243E+01
      4.788  0.1533E+00  0.8282E+01
      5.041  0.1107E+01  0.8562E+01
      5.294  0.7242E+00  0.8745E+01
      5.547  0.1419E+01  0.9105E+01
      5.800  0.1638E+01  0.9519E+01
      6.054  0.7549E+00  0.9711E+01
      6.307 -0.1057E-02  0.9710E+01
      6.560  0.2029E+00  0.9762E+01
      6.813  0.4636E-02  0.9763E+01
      7.066  0.1036E+01  0.1003E+02
      7.320  0.1987E+01  0.1053E+02
      7.573  0.3719E+01  0.1147E+02
      7.826  0.1011E+01  0.1173E+02
      8.079  0.5943E+00  0.1188E+02
      8.332  0.4020E+01  0.1289E+02
      8.585 -0.1365E+00  0.1286E+02
      8.839  0.7240E+00  0.1304E+02
      9.092  0.4222E+01  0.1411E+02
      9.345  0.1267E+00  0.1414E+02
      9.598  0.5689E+00  0.1429E+02
      9.851  0.9512E+00  0.1453E+02
     10.105 -0.3020E-02  0.1453E+02
     10.358  0.3612E-01  0.1454E+02
     10.611  0.1837E+00  0.1458E+02
     10.864  0.2221E+00  0.1464E+02
     11.117  0.5205E+00  0.1477E+02
     11.371  0.3290E+01  0.1560E+02
     11.624  0.4634E+00  0.1572E+02
     11.877  0.1147E+01  0.1601E+02
     12.130  0.2237E+01  0.1658E+02
     12.383  0.1394E+01  0.1693E+02
     12.637  0.5226E+00  0.1706E+02
     12.890  0.1696E+01  0.1749E+02
     13.143  0.1946E+01  0.1799E+02
     13.396  0.1197E+01  0.1829E+02
     13.649  0.2611E+00  0.1836E+02
     13.903  0.3765E+01  0.1931E+02
     14.156  0.2285E+01  0.1989E+02
     14.409  0.2825E+01  0.2060E+02
     14.662  0.2842E+00  0.2067E+02
     14.915  0.1816E+01  0.2113E+02
     15.168  0.1086E+01  0.2141E+02
     15.422 -0.4775E-02  0.2141E+02
     15.675 -0.7577E-02  0.2141E+02
     15.928  0.4836E+00  0.2153E+02
     16.181  0.1231E+01  0.2184E+02
     16.434  0.4742E+00  0.2196E+02
     16.688  0.2124E+01  0.2250E+02
     16.941  0.3744E+00  0.2259E+02
     17.194  0.9916E+00  0.2284E+02
     17.447  0.1323E+01  0.2318E+02
     17.700  0.5312E+01  0.2452E+02
     17.954  0.2838E+01  0.2524E+02
     18.207 -0.1109E+00  0.2521E+02
     18.460  0.2412E+01  0.2582E+02
     18.713  0.3071E+00  0.2590E+02
     18.966  0.1164E+01  0.2620E+02
     19.220  0.3106E+01  0.2698E+02
     19.473  0.1113E+01  0.2727E+02
     19.726  0.2883E+01  0.2800E+02
     19.979  0.1628E+01  0.2841E+02
     20.232  0.3224E+01  0.2922E+02
     20.486  0.1826E+00  0.2927E+02
     20.739  0.3132E+01  0.3006E+02
     20.992  0.1292E+00  0.3010E+02
     21.245 -0.5131E-01  0.3008E+02
     21.498  0.1584E+01  0.3048E+02
     21.752  0.1155E+01  0.3078E+02
     22.005 -0.3454E-01  0.3077E+02
     22.258 -0.4012E-03  0.3077E+02
     22.511  0.1644E+00  0.3081E+02
     22.764  0.2673E+01  0.3149E+02
     23.017  0.6429E+00  0.3165E+02
     23.271  0.1976E+01  0.3215E+02
     23.524  0.1954E+01  0.3264E+02
     23.777  0.4507E+01  0.3379E+02
     24.030  0.2766E+01  0.3449E+02
     24.283  0.4354E+01  0.3559E+02
     24.537  0.2618E+01  0.3625E+02
     24.790  0.4052E+01  0.3728E+02
     25.043 -0.1020E+00  0.3725E+02
     25.296  0.1620E+01  0.3766E+02
     25.549 -0.4343E-01  0.3765E+02
     25.803  0.4437E+01  0.3877E+02
     26.056  0.2435E+01  0.3939E+02
     26.309  0.8383E+00  0.3960E+02
     26.562  0.6712E-01  0.3962E+02
     26.815  0.2236E+01  0.4018E+02
     27.069  0.1463E+01  0.4056E+02
     27.322  0.2426E+01  0.4117E+02
     27.575  0.2321E+01  0.4176E+02
     27.828 -0.5258E-01  0.4174E+02
     28.081 -0.1247E-01  0.4174E+02
     28.335  0.1983E+01  0.4224E+02
     28.588  0.7405E+00  0.4243E+02
     28.841  0.7835E+00  0.4263E+02
     29.094  0.4325E+00  0.4274E+02
     29.347  0.2978E+01  0.4349E+02
     29.600  0.3193E+01  0.4430E+02
     29.854  0.2601E+01  0.4496E+02
     30.107  0.1041E+01  0.4522E+02
     30.360  0.6105E+01  0.4677E+02
     30.613  0.1397E+01  0.4712E+02
     30.866  0.2111E+01  0.4766E+02
     31.120  0.1884E+01  0.4813E+02
     31.373  0.2301E+01  0.4872E+02
     31.626  0.2989E+01  0.4947E+02
     31.879  0.4693E+01  0.5066E+02
     32.132  0.1709E+01  0.5109E+02
     32.386  0.2761E+01  0.5179E+02
     32.639  0.1786E+01  0.5225E+02
     32.892  0.3096E+01  0.5303E+02
     33.145  0.1511E+01  0.5341E+02
     33.398 -0.3866E-01  0.5340E+02
     33.652  0.1778E+01  0.5385E+02
     33.905  0.3993E+01  0.5486E+02
     34.158  0.4124E-01  0.5487E+02
     34.411  0.1730E+01  0.5531E+02
     34.664  0.1895E+00  0.5536E+02
     34.918  0.4891E+00  0.5548E+02
     35.171  0.6042E+00  0.5564E+02
     35.424  0.2375E+01  0.5624E+02
     35.677  0.1199E+01  0.5654E+02
     35.930  0.1394E+01  0.5689E+02
     36.183  0.2599E+01  0.5755E+02
     36.437  0.3330E+01  0.5840E+02
     36.690  0.2433E+01  0.5901E+02
     36.943  0.2701E+01  0.5970E+02
     37.196  0.3410E+01  0.6056E+02
     37.449  0.2784E+01  0.6126E+02
     37.703  0.5152E+01  0.6257E+02
     37.956  0.2653E+01  0.6324E+02
     38.209  0.5240E-01  0.6325E+02
     38.462  0.1178E+01  0.6355E+02
     38.715  0.1732E+01  0.6399E+02
     38.969  0.6412E+01  0.6561E+02
     39.222  0.2778E+01  0.6632E+02
     39.475  0.9082E+00  0.6655E+02
     39.728  0.3527E+01  0.6744E+02
     39.981  0.2897E+01  0.6817E+02
     40.235  0.1683E+01  0.6860E+02
     40.488  0.2359E+01  0.6920E+02
     40.741  0.7168E+00  0.6938E+02
     40.994  0.1058E+01  0.6965E+02
     41.247  0.2231E+01  0.7021E+02
     41.501  0.1555E+00  0.7025E+02
     41.754  0.9125E+00  0.7048E+02
     42.007  0.9314E+00  0.7072E+02
     42.260  0.4476E+00  0.7083E+02
     42.513  0.2131E+01  0.7137E+02
     42.767  0.8894E+00  0.7159E+02
     43.020  0.4636E+01  0.7277E+02
     43.273  0.2556E+01  0.7342E+02
     43.526  0.3042E+01  0.7419E+02
     43.779  0.2718E+01  0.7487E+02
     44.032  0.1414E+01  0.7523E+02
     44.286  0.4048E+01  0.7626E+02
     44.539  0.1831E+01  0.7672E+02
     44.792  0.1240E+01  0.7703E+02
     45.045  0.6298E+01  0.7863E+02
     45.298  0.2629E+01  0.7929E+02
     45.552  0.4855E+01  0.8052E+02
     45.805  0.2625E+01  0.8119E+02
     46.058  0.2760E+01  0.8189E+02
     46.311  0.2374E+01  0.8249E+02
     46.564  0.2548E+00  0.8255E+02
     46.818  0.3753E+01  0.8350E+02
     47.071 -0.1232E-01  0.8350E+02
     47.324  0.6892E+00  0.8367E+02
     47.577  0.1571E+01  0.8407E+02
     47.830  0.8403E+00  0.8429E+02
     48.084  0.2810E+01  0.8500E+02
     48.337  0.4560E+01  0.8615E+02
     48.590  0.1234E+01  0.8646E+02
     48.843  0.2396E+01  0.8707E+02
     49.096  0.2974E+01  0.8782E+02
     49.350  0.3654E+01  0.8875E+02
     49.603  0.1614E+01  0.8916E+02
     49.856  0.2590E+01  0.8981E+02
     50.109  0.3939E+01  0.9081E+02
     50.362  0.1268E+01  0.9113E+02
     50.615  0.3231E+01  0.9195E+02
     50.869  0.2686E+01  0.9263E+02
     51.122  0.1583E+01  0.9303E+02
     51.375  0.3906E+00  0.9313E+02
     51.628 -0.2249E-02  0.9313E+02
     51.881  0.2278E+01  0.9371E+02
     52.135  0.8268E+00  0.9392E+02
     52.388  0.2527E+01  0.9455E+02
     52.641  0.3790E+01  0.9551E+02
     52.894  0.2133E+01  0.9605E+02
     53.147  0.1772E+01  0.9650E+02
     53.401  0.3647E+01  0.9743E+02
     53.654  0.1920E+01  0.9791E+02
     53.907  0.3109E+01  0.9870E+02
     54.160  0.5966E+01  0.1002E+03
     54.413  0.3384E+01  0.1011E+03
     54.667  0.6256E+00  0.1012E+03
     54.920  0.1641E+01  0.1016E+03
     55.173  0.1377E+01  0.1020E+03
     55.426  0.6510E+01  0.1036E+03
     55.679  0.1296E+01  0.1040E+03
     55.933  0.1527E+01  0.1044E+03
     56.186  0.2551E+01  0.1050E+03
     56.439  0.5643E+01  0.1064E+03
     56.692  0.8088E+00  0.1066E+03
     56.945  0.9418E+00  0.1069E+03
     57.199  0.2525E+01  0.1075E+03
     57.452  0.2452E+01  0.1081E+03
     57.705  0.3502E+01  0.1090E+03
     57.958  0.4730E+01  0.1102E+03
     58.211  0.2628E+01  0.1109E+03
     58.464  0.2491E+00  0.1109E+03
     58.718  0.5296E+00  0.1111E+03
     58.971  0.1710E+01  0.1115E+03
     59.224  0.8187E-01  0.1115E+03
     59.477  0.3377E+00  0.1116E+03
     59.730 -0.2962E-02  0.1116E+03
     59.984 -0.2247E-01  0.1116E+03
     60.237  0.1573E+01  0.1120E+03
     60.490 -0.3420E-01  0.1120E+03
     60.743 -0.5865E-07  0.1120E+03
     60.996  0.0000E+00  0.1120E+03
     61.250  0.0000E+00  0.1120E+03
     61.503  0.0000E+00  0.1120E+03
     61.756  0.0000E+00  0.1120E+03
     62.009  0.0000E+00  0.1120E+03
     62.262  0.0000E+00  0.1120E+03
     62.516  0.0000E+00  0.1120E+03
     62.769  0.0000E+00  0.1120E+03
     63.022  0.0000E+00  0.1120E+03
     63.275  0.0000E+00  0.1120E+03
     63.528  0.0000E+00  0.1120E+03
