    2    2    1    1
  0.2234237E+02  0.3983132E-09  0.3983132E-09  0.3983132E-09  0.5000000E-15
  1.000000000000000E-004
  CAR 
 unknown system                          
      8      4     56
 
  0.0000000E+00  0.0000000E+00  0.0000000E+00  0.3703704E-01
    1       -8.896990   1.000000
    2        3.996194   1.000076
    3        3.996194   1.000076
    4        3.996195   1.000076
    5        4.187535  -0.000228
    6        6.486219   0.000000
    7        6.486219   0.000000
    8        6.486219   0.000000
    9       10.476527   0.000000
   10       13.228321   0.000000
   11       13.228321   0.000000
   12       14.691383   0.000000
   13       14.691383   0.000000
   14       14.691383   0.000000
   15       17.921990   0.000000
   16       28.347236   0.000000
   17       28.347236   0.000000
   18       28.347236   0.000000
   19       29.177287   0.000000
   20       29.177287   0.000000
   21       29.177288   0.000000
   22       29.521452   0.000000
   23       29.521452   0.000000
   24       30.205237   0.000000
   25       30.205237   0.000000
   26       30.205237   0.000000
   27       38.800120   0.000000
   28       39.187390   0.000000
   29       39.187390   0.000000
   30       39.187390   0.000000
   31       42.008914   0.000000
   32       42.008917   0.000000
   33       42.547694   0.000000
   34       42.547697   0.000000
   35       43.548430   0.000000
   36       43.748223   0.000000
   37       43.748224   0.000000
   38       43.748258   0.000000
   39       44.147176   0.000000
   40       44.147176   0.000000
   41       44.147191   0.000000
   42       44.923685   0.000000
   43       44.923687   0.000000
   44       44.923743   0.000000
   45       45.469655   0.000000
   46       45.469656   0.000000
   47       45.469807   0.000000
   48       46.545301   0.000000
   49       46.545304   0.000000
   50       46.545838   0.000000
   51       50.084307   0.000000
   52       51.985678   0.000000
   53       51.985922   0.000000
   54       52.162223   0.000000
   55       52.282889   0.000000
   56       52.284068   0.000000
 
  0.3333333E+00  0.0000000E+00  0.0000000E+00  0.2962963E+00
    1       -7.613000   1.000000
    2       -2.149638   1.000000
    3        2.791942   1.000000
    4        2.791942   1.000000
    5        4.436230  -0.000000
    6        7.714770   0.000000
    7        7.714770   0.000000
    8       11.084813   0.000000
    9       11.881263   0.000000
   10       12.819333   0.000000
   11       12.819333   0.000000
   12       16.529710   0.000000
   13       19.414884   0.000000
   14       19.414884   0.000000
   15       20.634871   0.000000
   16       20.998916   0.000000
   17       20.998916   0.000000
   18       24.346611   0.000000
   19       29.087106   0.000000
   20       29.486366   0.000000
   21       29.486366   0.000000
   22       30.336989   0.000000
   23       30.336989   0.000000
   24       31.224863   0.000000
   25       31.431840   0.000000
   26       31.431840   0.000000
   27       33.312489   0.000000
   28       36.033838   0.000000
   29       36.033838   0.000000
   30       36.619576   0.000000
   31       36.619576   0.000000
   32       36.820555   0.000000
   33       38.543096   0.000000
   34       39.269736   0.000000
   35       41.898959   0.000000
   36       41.898959   0.000000
   37       42.620096   0.000000
   38       42.620097   0.000000
   39       43.194907   0.000000
   40       44.792729   0.000000
   41       44.792733   0.000000
   42       44.910880   0.000000
   43       46.389454   0.000000
   44       50.052223   0.000000
   45       50.052294   0.000000
   46       51.288005   0.000000
   47       51.288264   0.000000
   48       52.670772   0.000000
   49       53.638729   0.000000
   50       53.641146   0.000000
   51       54.221962   0.000000
   52       56.571627   0.000000
   53       57.100644   0.000000
   54       57.178843   0.000000
   55       58.331356   0.000000
   56       58.385022   0.000000
 
  0.3333333E+00  0.3333333E+00  0.0000000E+00  0.2222222E+00
    1       -7.095799   1.000000
    2       -2.221503   1.000000
    3        1.313949   1.000000
    4        1.313949   1.000000
    5        4.597173  -0.000000
    6        5.918601   0.000000
    7       11.326048   0.000000
    8       11.326048   0.000000
    9       12.538678   0.000000
   10       15.071323   0.000000
   11       15.965542   0.000000
   12       18.365942   0.000000
   13       18.365942   0.000000
   14       18.922518   0.000000
   15       19.385141   0.000000
   16       19.385141   0.000000
   17       20.635288   0.000000
   18       21.976924   0.000000
   19       27.572796   0.000000
   20       28.375649   0.000000
   21       28.689656   0.000000
   22       28.689656   0.000000
   23       29.613631   0.000000
   24       30.468882   0.000000
   25       31.329479   0.000000
   26       31.329479   0.000000
   27       32.721465   0.000000
   28       36.497441   0.000000
   29       37.436267   0.000000
   30       37.436267   0.000000
   31       38.776690   0.000000
   32       39.353052   0.000000
   33       40.586768   0.000000
   34       40.586768   0.000000
   35       40.827421   0.000000
   36       40.941106   0.000000
   37       40.941106   0.000000
   38       43.024321   0.000000
   39       43.688439   0.000000
   40       43.727748   0.000000
   41       44.523237   0.000000
   42       44.523238   0.000000
   43       46.270060   0.000000
   44       49.119675   0.000000
   45       50.478498   0.000000
   46       50.478510   0.000000
   47       51.579475   0.000000
   48       52.429475   0.000000
   49       53.205495   0.000000
   50       53.206090   0.000000
   51       53.706095   0.000000
   52       54.282675   0.000000
   53       57.856291   0.000000
   54       58.512434   0.000000
   55       58.563573   0.000000
   56       59.889035   0.000000
 
 -0.3333333E+00  0.3333333E+00  0.0000000E+00  0.4444444E+00
    1       -5.871316   1.000000
    2       -3.894070   1.000000
    3       -0.574529   1.000000
    4        1.616013   1.000000
    5        5.390927  -0.000000
    6        9.766436   0.000000
    7       10.411716   0.000000
    8       10.431112   0.000000
    9       11.188295   0.000000
   10       12.767971   0.000000
   11       17.626223   0.000000
   12       17.835662   0.000000
   13       19.554975   0.000000
   14       20.774722   0.000000
   15       21.127017   0.000000
   16       22.210871   0.000000
   17       22.351136   0.000000
   18       24.266264   0.000000
   19       25.512363   0.000000
   20       25.886274   0.000000
   21       26.006231   0.000000
   22       26.321447   0.000000
   23       28.962067   0.000000
   24       29.776223   0.000000
   25       29.870459   0.000000
   26       31.861639   0.000000
   27       31.929516   0.000000
   28       32.285271   0.000000
   29       36.893114   0.000000
   30       37.352253   0.000000
   31       37.404819   0.000000
   32       37.738450   0.000000
   33       38.015965   0.000000
   34       38.576064   0.000000
   35       41.544008   0.000000
   36       41.869164   0.000000
   37       43.086160   0.000000
   38       45.143241   0.000000
   39       45.603324   0.000000
   40       47.427890   0.000000
   41       47.873399   0.000000
   42       48.689497   0.000000
   43       49.166693   0.000000
   44       50.520306   0.000000
   45       50.566163   0.000000
   46       51.156295   0.000000
   47       51.350002   0.000000
   48       52.641547   0.000000
   49       53.224143   0.000000
   50       53.781299   0.000000
   51       54.906435   0.000000
   52       55.272138   0.000000
   53       56.107544   0.000000
   54       56.145436   0.000000
   55       57.905967   0.000000
   56       58.475356   0.000000
