       N       E                     dE             d eps       ncg     rms          ort
DAV:   1    -0.136252395867E+01   -0.13625E+01   -0.49483E+03   224   0.137E+02
DAV:   2    -0.824550710166E+01   -0.68830E+01   -0.68609E+01   224   0.125E+01
DAV:   3    -0.827771515936E+01   -0.32208E-01   -0.32205E-01   224   0.118E+00
DAV:   4    -0.827795624829E+01   -0.24109E-03   -0.24109E-03   224   0.936E-02
DAV:   5    -0.827795674720E+01   -0.49891E-06   -0.49899E-06   224   0.466E-03
SDA:   6    -0.810613886106E+01    0.17182E+00   -0.17462E-01   224   0.437E-01 0.000E+00
DMP:   7    -0.812166718720E+01   -0.15528E-01   -0.15025E-01   224   0.250E-01 0.329E-01
DMP:   8    -0.813384779646E+01   -0.12181E-01   -0.81554E-02   224   0.111E-01 0.244E-01
DMP:   9    -0.814035087631E+01   -0.65031E-02   -0.35762E-02   224   0.430E-02 0.121E-01
DMP:  10    -0.814335431921E+01   -0.30034E-02   -0.13857E-02   224   0.155E-02 0.501E-02
DMP:  11    -0.814441172870E+01   -0.10574E-02   -0.47906E-03   224   0.499E-03 0.183E-02
DMP:  12    -0.814476446009E+01   -0.35273E-03   -0.14059E-03   224   0.133E-03 0.571E-03
DMP:  13    -0.814486242794E+01   -0.97968E-04   -0.34760E-04   224   0.329E-04 0.141E-03
   1 F= -.81448624E+01 E0= -.81448994E+01  d E =0.110778E-03
