       N       E                     dE             d eps       ncg     rms          rms(c)
DAV:   1    -0.457498379772E+01   -0.45750E+01   -0.32246E+03  1176   0.104E+02
DAV:   2    -0.892518342165E+01   -0.43502E+01   -0.43397E+01  1680   0.101E+01
DAV:   3    -0.892761547095E+01   -0.24320E-02   -0.24320E-02  1120   0.317E-01
DAV:   4    -0.892761558880E+01   -0.11785E-06   -0.11770E-06  1960   0.215E-03
DAV:   5    -0.892761558877E+01    0.29615E-10    0.28469E-13  1120   0.893E-07    0.316E+00
DAV:   6    -0.885339755939E+01    0.74218E-01   -0.40692E-02  1680   0.167E-01    0.195E+00
DAV:   7    -0.882077059473E+01    0.32627E-01   -0.79366E-02  1624   0.249E-01    0.134E-01
DAV:   8    -0.882205161549E+01   -0.12810E-02   -0.16012E-03  1680   0.387E-02    0.377E-02
DAV:   9    -0.882226236367E+01   -0.21075E-03   -0.23067E-04  1792   0.147E-02    0.177E-02
DAV:  10    -0.882227426895E+01   -0.11905E-04   -0.29896E-05  1456   0.579E-03
   1 F= -.88222743E+01 E0= -.88224281E+01  d E =0.461505E-03
