 vasp.5.4.4.18Apr17-6-g9f103f2a35 (build Nov 08 2017 12:56:59) complex          
  
 executed on             LinuxIFC date 2020.03.19  20:29:08
 running on   56 total cores
 distrk:  each k-point on   56 cores,    1 groups
 distr:  one band on NCORES_PER_BAND=   1 cores,   56 groups


--------------------------------------------------------------------------------------------------------


 INCAR:
 POTCAR:    PAW_PBE Ge 05Jan2001                  

 ----------------------------------------------------------------------------- 
|                                                                             |
|           W    W    AA    RRRRR   N    N  II  N    N   GGGG   !!!           |
|           W    W   A  A   R    R  NN   N  II  NN   N  G    G  !!!           |
|           W    W  A    A  R    R  N N  N  II  N N  N  G       !!!           |
|           W WW W  AAAAAA  RRRRR   N  N N  II  N  N N  G  GGG   !            |
|           WW  WW  A    A  R   R   N   NN  II  N   NN  G    G                |
|           W    W  A    A  R    R  N    N  II  N    N   GGGG   !!!           |
|                                                                             |
|      For optimal performance we recommend to set                            |
|        NCORE= 4 - approx SQRT( number of cores)                             |
|      NCORE specifies how many cores store one orbital (NPAR=cpu/NCORE).     |
|      This setting can  greatly improve the performance of VASP for DFT.     |
|      The default,   NCORE=1            might be grossly inefficient         |
|      on modern multi-core architectures or massively parallel machines.     |
|      Do your own testing !!!!                                               |
|      Unfortunately you need to use the default for GW and RPA calculations. |
|      (for HF NCORE is supported but not extensively tested yet)             |
|                                                                             |
 ----------------------------------------------------------------------------- 

 POTCAR:    PAW_PBE Ge 05Jan2001                  
   VRHFIN =Ge: s2p2                                                             
   LEXCH  = PE                                                                  
   EATOM  =   104.9960 eV,    7.7170 Ry                                         
                                                                                
   TITEL  = PAW_PBE Ge 05Jan2001                                                
   LULTRA =        F    use ultrasoft PP ?                                      
   IUNSCR =        1    unscreen: 0-lin 1-nonlin 2-no                           
   RPACOR =    2.170    partial core radius                                     
   POMASS =   72.610; ZVAL   =    4.000    mass and valenz                      
   RCORE  =    2.300    outmost cutoff radius                                   
   RWIGS  =    2.300; RWIGS  =    1.217    wigner-seitz radius (au A)           
   ENMAX  =  173.807; ENMIN  =  130.355 eV                                      
   ICORE  =        3    local potential                                         
   LCOR   =        T    correct aug charges                                     
   LPAW   =        T    paw PP                                                  
   EAUG   =  385.843                                                            
   DEXC   =    0.000                                                            
   RMAX   =    2.342    core radius for proj-oper                               
   RAUG   =    1.300    factor for augmentation sphere                          
   RDEP   =    2.318    radius for radial grids                                 
   RDEPT  =    2.103    core radius for aug-charge                              
                                                                                
   Atomic configuration                                                         
   10 entries                                                                   
     n  l   j            E        occ.                                          
     1  0  0.50    -10959.8463   2.0000                                         
     2  0  0.50     -1371.6056   2.0000                                         
     2  1  1.50     -1198.4791   6.0000                                         
     3  0  0.50      -168.4733   2.0000                                         
     3  1  1.50      -115.6019   6.0000                                         
     3  2  2.50       -29.3106  10.0000                                         
     4  0  0.50       -11.7309   2.0000                                         
     4  1  0.50        -3.8952   2.0000                                         
     4  2  1.50        -4.0817   0.0000                                         
     4  3  2.50        -4.0817   0.0000                                         
   Description                                                                  
     l       E           TYP  RCUT    TYP  RCUT                                 
     0    -11.7309493     23  2.300                                             
     0     -7.4578696     23  2.300                                             
     1     -3.8952261     23  2.300                                             
     1      6.1178114     23  2.300                                             
     2     -4.0817478     23  2.300                                             
     3     -1.3605826      7  2.300                                             
  local pseudopotential read in
  partial core-charges read in
  partial kinetic energy density read in
  atomic valenz-charges read in
  non local Contribution for L=           0  read in
    real space projection operators read in
  non local Contribution for L=           0  read in
    real space projection operators read in
  non local Contribution for L=           1  read in
    real space projection operators read in
  non local Contribution for L=           1  read in
    real space projection operators read in
  non local Contribution for L=           2  read in
    real space projection operators read in
    PAW grid and wavefunctions read in
 
   number of l-projection  operators is LMAX  =           5
   number of lm-projection operators is LMMAX =          13
 
  PAW_PBE Ge 05Jan2001                  :
 energy of atom  1       EATOM= -104.9960
 kinetic energy error for atom=    0.0003 (will be added to EATOM!!)
 
 
 POSCAR: Ge                                      
  positions in direct lattice
  No initial velocities read in
 exchange correlation table for  LEXCH =        8
   RHO(1)=    0.500       N(1)  =     2000
   RHO(2)=  100.500       N(2)  =     4000
 


--------------------------------------------------------------------------------------------------------


 ion  position               nearest neighbor table
   1  0.000  0.000  0.000-   2 2.44   2 2.44   2 2.44   2 2.44
   2  0.250  0.250  0.250-   1 2.44   1 2.44   1 2.44   1 2.44
 
  LATTYP: Found a face centered cubic cell.
 ALAT       =     5.6330000000
  
  Lattice vectors:
  
 A1 = (   0.0000000000,   2.8165000000,   2.8165000000)
 A2 = (   2.8165000000,   0.0000000000,   2.8165000000)
 A3 = (   2.8165000000,   2.8165000000,   0.0000000000)


Analysis of symmetry for initial positions (statically):
=====================================================================
 Subroutine PRICEL returns:
 Original cell was already a primitive cell.
 

 Routine SETGRP: Setting up the symmetry group for a 
 face centered cubic supercell.


 Subroutine GETGRP returns: Found 48 space group operations
 (whereof 24 operations were pure point group operations)
 out of a pool of 48 trial point group operations.


The static configuration has the point symmetry T_d .
 The point group associated with its full space group is O_h .


Analysis of symmetry for dynamics (positions and initial velocities):
=====================================================================
 Subroutine PRICEL returns:
 Original cell was already a primitive cell.
 

 Routine SETGRP: Setting up the symmetry group for a 
 face centered cubic supercell.


 Subroutine GETGRP returns: Found 48 space group operations
 (whereof 24 operations were pure point group operations)
 out of a pool of 48 trial point group operations.


The dynamic configuration has the point symmetry T_d .
 The point group associated with its full space group is O_h .


 Subroutine INISYM returns: Found 48 space group operations
 (whereof 24 operations are pure point group operations),
 and found     1 'primitive' translations

 
 
 KPOINTS: KPOINTS created by Atomic Simulation Env

Automatic generation of k-mesh.
Space group operators:
 irot       det(A)        alpha          n_x          n_y          n_z        tau_x        tau_y        tau_z
    1     1.000000     0.000000     1.000000     0.000000     0.000000     0.000000     0.000000     0.000000
    2     1.000000   120.000000    -0.577350    -0.577350    -0.577350     0.000000     0.000000     0.000000
    3     1.000000   120.000000     0.577350     0.577350     0.577350     0.000000     0.000000     0.000000
    4    -1.000000    90.000000     0.000000     0.000000    -1.000000     0.000000     0.000000     0.000000
    5    -1.000000   180.000000     0.000000     0.707107     0.707107     0.000000     0.000000     0.000000
    6    -1.000000    90.000000     0.000000     1.000000     0.000000     0.000000     0.000000     0.000000
    7     1.000000   180.000000     0.000000     0.000000     1.000000     0.000000     0.000000     0.000000
    8     1.000000   120.000000    -0.577350     0.577350     0.577350     0.000000     0.000000     0.000000
    9     1.000000   120.000000    -0.577350     0.577350    -0.577350     0.000000     0.000000     0.000000
   10    -1.000000    90.000000     0.000000     0.000000     1.000000     0.000000     0.000000     0.000000
   11    -1.000000    90.000000    -1.000000     0.000000     0.000000     0.000000     0.000000     0.000000
   12    -1.000000   180.000000     0.707107     0.000000     0.707107     0.000000     0.000000     0.000000
   13     1.000000   120.000000     0.577350    -0.577350     0.577350     0.000000     0.000000     0.000000
   14     1.000000   120.000000    -0.577350    -0.577350     0.577350     0.000000     0.000000     0.000000
   15     1.000000   180.000000     1.000000     0.000000     0.000000     0.000000     0.000000     0.000000
   16    -1.000000    90.000000     0.000000    -1.000000     0.000000     0.000000     0.000000     0.000000
   17    -1.000000   180.000000     0.707107     0.707107     0.000000     0.000000     0.000000     0.000000
   18    -1.000000    90.000000     1.000000     0.000000     0.000000     0.000000     0.000000     0.000000
   19     1.000000   120.000000     0.577350    -0.577350    -0.577350     0.000000     0.000000     0.000000
   20     1.000000   180.000000     0.000000     1.000000     0.000000     0.000000     0.000000     0.000000
   21     1.000000   120.000000     0.577350     0.577350    -0.577350     0.000000     0.000000     0.000000
   22    -1.000000   180.000000     0.000000    -0.707107     0.707107     0.000000     0.000000     0.000000
   23    -1.000000   180.000000     0.707107    -0.707107     0.000000     0.000000     0.000000     0.000000
   24    -1.000000   180.000000     0.707107     0.000000    -0.707107     0.000000     0.000000     0.000000
   25    -1.000000     0.000000     1.000000     0.000000     0.000000     0.250000     0.250000     0.250000
   26    -1.000000   120.000000    -0.577350    -0.577350    -0.577350     0.250000     0.250000     0.250000
   27    -1.000000   120.000000     0.577350     0.577350     0.577350     0.250000     0.250000     0.250000
   28     1.000000    90.000000     0.000000     0.000000    -1.000000     0.250000     0.250000     0.250000
   29     1.000000   180.000000     0.000000     0.707107     0.707107     0.250000     0.250000     0.250000
   30     1.000000    90.000000     0.000000     1.000000     0.000000     0.250000     0.250000     0.250000
   31    -1.000000   180.000000     0.000000     0.000000     1.000000     0.250000     0.250000     0.250000
   32    -1.000000   120.000000    -0.577350     0.577350     0.577350     0.250000     0.250000     0.250000
   33    -1.000000   120.000000    -0.577350     0.577350    -0.577350     0.250000     0.250000     0.250000
   34     1.000000    90.000000     0.000000     0.000000     1.000000     0.250000     0.250000     0.250000
   35     1.000000    90.000000    -1.000000     0.000000     0.000000     0.250000     0.250000     0.250000
   36     1.000000   180.000000     0.707107     0.000000     0.707107     0.250000     0.250000     0.250000
   37    -1.000000   120.000000     0.577350    -0.577350     0.577350     0.250000     0.250000     0.250000
   38    -1.000000   120.000000    -0.577350    -0.577350     0.577350     0.250000     0.250000     0.250000
   39    -1.000000   180.000000     1.000000     0.000000     0.000000     0.250000     0.250000     0.250000
   40     1.000000    90.000000     0.000000    -1.000000     0.000000     0.250000     0.250000     0.250000
   41     1.000000   180.000000     0.707107     0.707107     0.000000     0.250000     0.250000     0.250000
   42     1.000000    90.000000     1.000000     0.000000     0.000000     0.250000     0.250000     0.250000
   43    -1.000000   120.000000     0.577350    -0.577350    -0.577350     0.250000     0.250000     0.250000
   44    -1.000000   180.000000     0.000000     1.000000     0.000000     0.250000     0.250000     0.250000
   45    -1.000000   120.000000     0.577350     0.577350    -0.577350     0.250000     0.250000     0.250000
   46     1.000000   180.000000     0.000000    -0.707107     0.707107     0.250000     0.250000     0.250000
   47     1.000000   180.000000     0.707107    -0.707107     0.000000     0.250000     0.250000     0.250000
   48     1.000000   180.000000     0.707107     0.000000    -0.707107     0.250000     0.250000     0.250000
 
 Subroutine IBZKPT returns following result:
 ===========================================
 
 Found     10 irreducible k-points:
 
 Following reciprocal coordinates:
            Coordinates               Weight
  0.000000  0.000000  0.000000      1.000000
  0.200000  0.000000  0.000000      8.000000
  0.400000  0.000000  0.000000      8.000000
  0.200000  0.200000  0.000000      6.000000
  0.400000  0.200000  0.000000     24.000000
 -0.400000  0.200000  0.000000     24.000000
 -0.200000  0.200000  0.000000     12.000000
  0.400000  0.400000  0.000000      6.000000
 -0.400000  0.400000  0.000000     12.000000
 -0.400000  0.400000  0.200000     24.000000
 
 Following cartesian coordinates:
            Coordinates               Weight
  0.000000  0.000000  0.000000      1.000000
 -0.035505  0.035505  0.035505      8.000000
 -0.071010  0.071010  0.071010      8.000000
  0.000000  0.000000  0.071010      6.000000
 -0.035505  0.035505  0.106515     24.000000
  0.106515 -0.106515 -0.035505     24.000000
  0.071010 -0.071010  0.000000     12.000000
  0.000000  0.000000  0.142020      6.000000
  0.142020 -0.142020  0.000000     12.000000
  0.177525 -0.106515 -0.035505     24.000000
 


--------------------------------------------------------------------------------------------------------




 Dimension of arrays:
   k-points           NKPTS =     10   k-points in BZ     NKDIM =     10   number of bands    NBANDS=     56
   number of dos      NEDOS =    301   number of ions     NIONS =      2
   non local maximal  LDIM  =      5   non local SUM 2l+1 LMDIM =     13
   total plane-waves  NPLWV =  13824
   max r-space proj   IRMAX =      1   max aug-charges    IRDMAX=  17012
   dimension x,y,z NGX =    24 NGY =   24 NGZ =   24
   dimension x,y,z NGXF=    48 NGYF=   48 NGZF=   48
   support grid    NGXF=    48 NGYF=   48 NGZF=   48
   ions per type =               2
   NGX,Y,Z   is equivalent  to a cutoff of  10.02, 10.02, 10.02 a.u.
   NGXF,Y,Z  is equivalent  to a cutoff of  20.03, 20.03, 20.03 a.u.

 SYSTEM =  unknown system                          
 POSCAR =  Ge                                      

 Startparameter for this run:
   NWRITE =      2    write-flag & timer
   PREC   = normal    normal or accurate (medium, high low for compatibility)
   ISTART =      0    job   : 0-new  1-cont  2-samecut
   ICHARG =      2    charge: 1-file 2-atom 10-const
   ISPIN  =      1    spin polarized calculation?
   LNONCOLLINEAR =      F non collinear calculations
   LSORBIT =      F    spin-orbit coupling
   INIWAV =      1    electr: 0-lowe 1-rand  2-diag
   LASPH  =      F    aspherical Exc in radial PAW
   METAGGA=      F    non-selfconsistent MetaGGA calc.

 Electronic Relaxation 1
   ENCUT  =  450.0 eV  33.07 Ry    5.75 a.u.   6.89  6.89  6.89*2*pi/ulx,y,z
   ENINI  =  450.0     initial cutoff
   ENAUG  =  385.8 eV  augmentation charge cutoff
   NELM   =     60;   NELMIN=  2; NELMDL= -5     # of ELM steps 
   EDIFF  = 0.1E-03   stopping-criterion for ELM
   LREAL  =      F    real-space projection
   NLSPLINE    = F    spline interpolate recip. space projectors
   LCOMPAT=      F    compatible to vasp.4.4
   GGA_COMPAT  = T    GGA compatible to vasp.4.4-vasp.4.6
   LMAXPAW     = -100 max onsite density
   LMAXMIX     =    2 max onsite mixed and CHGCAR
   VOSKOWN=      0    Vosko Wilk Nusair interpolation
   ROPT   =    0.00000
 Ionic relaxation
   EDIFFG = 0.1E-02   stopping-criterion for IOM
   NSW    =      0    number of steps for IOM
   NBLOCK =      1;   KBLOCK =      1    inner block; outer block 
   IBRION =     -1    ionic relax: 0-MD 1-quasi-New 2-CG
   NFREE  =      0    steps in history (QN), initial steepest desc. (CG)
   ISIF   =      2    stress and relaxation
   IWAVPR =     10    prediction:  0-non 1-charg 2-wave 3-comb
   ISYM   =      2    0-nonsym 1-usesym 2-fastsym
   LCORR  =      T    Harris-Foulkes like correction to forces

   POTIM  = 0.5000    time-step for ionic-motion
   TEIN   =    0.0    initial temperature
   TEBEG  =    0.0;   TEEND  =   0.0 temperature during run
   SMASS  =  -3.00    Nose mass-parameter (am)
   estimated Nose-frequenzy (Omega)   =  0.10E-29 period in steps =****** mass=  -0.363E-27a.u.
   SCALEE = 1.0000    scale energy and forces
   NPACO  =    256;   APACO  = 16.0  distance and # of slots for P.C.
   PSTRESS=    0.0 pullay stress

  Mass of Ions in am
   POMASS =  72.61
  Ionic Valenz
   ZVAL   =   4.00
  Atomic Wigner-Seitz radii
   RWIGS  =  -1.00
  virtual crystal weights 
   VCA    =   1.00
   NELECT =       8.0000    total number of electrons
   NUPDOWN=      -1.0000    fix difference up-down

 DOS related values:
   EMIN   =  10.00;   EMAX   =-10.00  energy-range for DOS
   EFERMI =   0.00
   ISMEAR =     1;   SIGMA  =   0.10  broadening in eV -4-tet -1-fermi 0-gaus

 Electronic relaxation 2 (details)
   IALGO  =     38    algorithm
   LDIAG  =      T    sub-space diagonalisation (order eigenvalues)
   LSUBROT=      F    optimize rotation matrix (better conditioning)
   TURBO    =      0    0=normal 1=particle mesh
   IRESTART =      0    0=no restart 2=restart with 2 vectors
   NREBOOT  =      0    no. of reboots
   NMIN     =      0    reboot dimension
   EREF     =   0.00    reference energy to select bands
   IMIX   =      4    mixing-type and parameters
     AMIX     =   0.40;   BMIX     =  1.00
     AMIX_MAG =   1.60;   BMIX_MAG =  1.00
     AMIN     =   0.10
     WC   =   100.;   INIMIX=   1;  MIXPRE=   1;  MAXMIX= -45

 Intra band minimization:
   WEIMIN = 0.0000     energy-eigenvalue tresh-hold
   EBREAK =  0.45E-06  absolut break condition
   DEPER  =   0.30     relativ break condition  

   TIME   =   0.40     timestep for ELM

  volume/ion in A,a.u.               =      22.34       150.77
  Fermi-wavevector in a.u.,A,eV,Ry     =   0.922681  1.743615 11.583196  0.851341
  Thomas-Fermi vector in A             =   2.048235
 
 Write flags
   LWAVE        =      T    write WAVECAR
   LDOWNSAMPLE  =      F    k-point downsampling of WAVECAR
   LCHARG       =      T    write CHGCAR
   LVTOT        =      F    write LOCPOT, total local potential
   LVHAR        =      F    write LOCPOT, Hartree potential only
   LELF         =      F    write electronic localiz. function (ELF)
   LORBIT       =      0    0 simple, 1 ext, 2 COOP (PROOUT), +10 PAW based schemes


 Dipole corrections
   LMONO  =      F    monopole corrections only (constant potential shift)
   LDIPOL =      F    correct potential (dipole corrections)
   IDIPOL =      0    1-x, 2-y, 3-z, 4-all directions 
   EPSILON=  1.0000000 bulk dielectric constant

 Exchange correlation treatment:
   GGA     =    PE    GGA type
   LEXCH   =     8    internal setting for exchange type
   VOSKOWN=      0    Vosko Wilk Nusair interpolation
   LHFCALC =     F    Hartree Fock is set to
   LHFONE  =     F    Hartree Fock one center treatment
   AEXX    =    0.0000 exact exchange contribution

 Linear response parameters
   LEPSILON=     F    determine dielectric tensor
   LRPA    =     F    only Hartree local field effects (RPA)
   LNABLA  =     F    use nabla operator in PAW spheres
   LVEL    =     F    velocity operator in full k-point grid
   LINTERFAST=   F  fast interpolation
   KINTER  =     0    interpolate to denser k-point grid
   CSHIFT  =0.1000    complex shift for real part using Kramers Kronig
   OMEGAMAX=  -1.0    maximum frequency
   DEG_THRESHOLD= 0.2000000E-02 threshold for treating states as degnerate
   RTIME   =   -0.100 relaxation time in fs
  (WPLASMAI=    0.000 imaginary part of plasma frequency in eV, 0.658/RTIME)
   DFIELD  = 0.0000000 0.0000000 0.0000000 field for delta impulse in time
 
 Orbital magnetization related:
   ORBITALMAG=     F  switch on orbital magnetization
   LCHIMAG   =     F  perturbation theory with respect to B field
   DQ        =  0.001000  dq finite difference perturbation B field
   LLRAUG    =     F  two centre corrections for induced B field



--------------------------------------------------------------------------------------------------------


 Static calculation
 charge density and potential will be updated during run
 non-spin polarized calculation
 Variant of blocked Davidson
 Davidson routine will perform the subspace rotation
 perform sub-space diagonalisation
    after iterative eigenvector-optimisation
 modified Broyden-mixing scheme, WC =      100.0
 initial mixing is a Kerker type mixing with AMIX =  0.4000 and BMIX =      1.0000
 Hartree-type preconditioning will be used
 using additional bands           52
 reciprocal scheme for non local part
 use partial core corrections
 calculate Harris-corrections to forces 
   (improved forces if not selfconsistent)
 use gradient corrections 
 use of overlap-Matrix (Vanderbilt PP)
 Methfessel and Paxton  Order N= 1 SIGMA  =   0.10


--------------------------------------------------------------------------------------------------------


  energy-cutoff  :      450.00
  volume of cell :       44.68
      direct lattice vectors                 reciprocal lattice vectors
     0.000000000  2.816500000  2.816500000    -0.177525297  0.177525297  0.177525297
     2.816500000  0.000000000  2.816500000     0.177525297 -0.177525297  0.177525297
     2.816500000  2.816500000  0.000000000     0.177525297  0.177525297 -0.177525297

  length of vectors
     3.983132498  3.983132498  3.983132498     0.307482835  0.307482835  0.307482835


 
 k-points in units of 2pi/SCALE and weight: KPOINTS created by Atomic Simulation Env
   0.00000000  0.00000000  0.00000000       0.008
  -0.03550506  0.03550506  0.03550506       0.064
  -0.07101012  0.07101012  0.07101012       0.064
   0.00000000  0.00000000  0.07101012       0.048
  -0.03550506  0.03550506  0.10651518       0.192
   0.10651518 -0.10651518 -0.03550506       0.192
   0.07101012 -0.07101012  0.00000000       0.096
   0.00000000  0.00000000  0.14202024       0.048
   0.14202024 -0.14202024  0.00000000       0.096
   0.17752530 -0.10651518 -0.03550506       0.192
 
 k-points in reciprocal lattice and weights: KPOINTS created by Atomic Simulation Env
   0.00000000  0.00000000  0.00000000       0.008
   0.20000000  0.00000000  0.00000000       0.064
   0.40000000  0.00000000  0.00000000       0.064
   0.20000000  0.20000000  0.00000000       0.048
   0.40000000  0.20000000  0.00000000       0.192
  -0.40000000  0.20000000  0.00000000       0.192
  -0.20000000  0.20000000  0.00000000       0.096
   0.40000000  0.40000000  0.00000000       0.048
  -0.40000000  0.40000000  0.00000000       0.096
  -0.40000000  0.40000000  0.20000000       0.192
 
 position of ions in fractional coordinates (direct lattice) 
   0.00000000  0.00000000  0.00000000
   0.25000000  0.25000000  0.25000000
 
 position of ions in cartesian coordinates  (Angst):
   0.00000000  0.00000000  0.00000000
   1.40825000  1.40825000  1.40825000
 


--------------------------------------------------------------------------------------------------------


 k-point  1 :   0.0000 0.0000 0.0000  plane waves:     941
 k-point  2 :   0.2000 0.0000 0.0000  plane waves:     956
 k-point  3 :   0.4000 0.0000 0.0000  plane waves:     966
 k-point  4 :   0.2000 0.2000 0.0000  plane waves:     966
 k-point  5 :   0.4000 0.2000 0.0000  plane waves:     973
 k-point  6 :  -0.4000 0.2000 0.0000  plane waves:     963
 k-point  7 :  -0.2000 0.2000 0.0000  plane waves:     969
 k-point  8 :   0.4000 0.4000 0.0000  plane waves:     978
 k-point  9 :  -0.4000 0.4000 0.0000  plane waves:     973
 k-point 10 :  -0.4000 0.4000 0.2000  plane waves:     974

 maximum and minimum number of plane-waves per node :       978      941

 maximum number of plane-waves:       978
 maximum index in each direction: 
   IXMAX=    7   IYMAX=    6   IZMAX=    6
   IXMIN=   -7   IYMIN=   -7   IZMIN=   -7


 serial   3D FFT for wavefunctions
 parallel 3D FFT for charge:
    minimum data exchange during FFTs selected (reduces bandwidth)


 total amount of memory used by VASP MPI-rank0    32164. kBytes
=======================================================================

   base      :      30000. kBytes
   nonl-proj :       1080. kBytes
   fftplans  :        272. kBytes
   grid      :        626. kBytes
   one-center:         16. kBytes
   wavefun   :        170. kBytes
 
     INWAV:  cpu time    0.0000: real time    0.0002
 Broyden mixing: mesh for mixing (old mesh)
   NGX = 13   NGY = 13   NGZ = 13
  (NGX  = 48   NGY  = 48   NGZ  = 48)
  gives a total of   2197 points

 initial charge density was supplied:
 charge density of overlapping atoms calculated
 number of electron       8.0000000 magnetization 
 keeping initial charge density in first step


--------------------------------------------------------------------------------------------------------


 Maximum index for augmentation-charges          721 (set IRDMAX)


--------------------------------------------------------------------------------------------------------


 First call to EWALD:  gamma=   0.499
 Maximum number of real-space cells 3x 3x 3
 Maximum number of reciprocal cells 3x 3x 3

    FEWALD:  cpu time    0.0019: real time    0.0020


--------------------------------------- Iteration      1(   1)  ---------------------------------------


    POTLOK:  cpu time    0.0060: real time    0.0130
    SETDIJ:  cpu time    0.0056: real time    0.0075
     EDDAV:  cpu time    0.3883: real time    0.3919
       DOS:  cpu time    0.0010: real time    0.0039
    --------------------------------------------
      LOOP:  cpu time    0.4009: real time    0.4164

 eigenvalue-minimisations  :  1176
 total energy-change (2. order) :-0.4574984E+01  (-0.3224625E+03)
 number of electron       8.0000000 magnetization 
 augmentation part        8.0000000 magnetization 

 Free energy of the ion-electron system (eV)
  ---------------------------------------------------
  alpha Z        PSCENC =        17.10940282
  Ewald energy   TEWEN  =      -220.32663596
  -Hartree energ DENC   =       -12.42928696
  -exchange      EXHF   =         0.00000000
  -V(xc)+E(xc)   XCENC  =       -14.98288157
  PAW double counting   =       176.29039040     -147.31525009
  entropy T*S    EENTRO =        -0.00107168
  eigenvalues    EBANDS =       -12.91110134
  atomic energy  EATOM  =       209.99145059
  Solvation  Ediel_sol  =         0.00000000
  ---------------------------------------------------
  free energy    TOTEN  =        -4.57498380 eV

  energy without entropy =       -4.57391212  energy(sigma->0) =       -4.57462657


--------------------------------------------------------------------------------------------------------




--------------------------------------- Iteration      1(   2)  ---------------------------------------


     EDDAV:  cpu time    0.6965: real time    0.7004
       DOS:  cpu time    0.0002: real time    0.0002
    --------------------------------------------
      LOOP:  cpu time    0.6967: real time    0.7006

 eigenvalue-minimisations  :  1680
 total energy-change (2. order) :-0.4350200E+01  (-0.4339738E+01)
 number of electron       8.0000000 magnetization 
 augmentation part        8.0000000 magnetization 

 Free energy of the ion-electron system (eV)
  ---------------------------------------------------
  alpha Z        PSCENC =        17.10940282
  Ewald energy   TEWEN  =      -220.32663596
  -Hartree energ DENC   =       -12.42928696
  -exchange      EXHF   =         0.00000000
  -V(xc)+E(xc)   XCENC  =       -14.98288157
  PAW double counting   =       176.29039040     -147.31525009
  entropy T*S    EENTRO =         0.00017332
  eigenvalues    EBANDS =       -17.26254596
  atomic energy  EATOM  =       209.99145059
  Solvation  Ediel_sol  =         0.00000000
  ---------------------------------------------------
  free energy    TOTEN  =        -8.92518342 eV

  energy without entropy =       -8.92535674  energy(sigma->0) =       -8.92524119


--------------------------------------------------------------------------------------------------------




--------------------------------------- Iteration      1(   3)  ---------------------------------------


     EDDAV:  cpu time    0.3440: real time    0.3453
       DOS:  cpu time    0.0003: real time    0.0003
    --------------------------------------------
      LOOP:  cpu time    0.3443: real time    0.3456

 eigenvalue-minimisations  :  1120
 total energy-change (2. order) :-0.2432049E-02  (-0.2432048E-02)
 number of electron       8.0000000 magnetization 
 augmentation part        8.0000000 magnetization 

 Free energy of the ion-electron system (eV)
  ---------------------------------------------------
  alpha Z        PSCENC =        17.10940282
  Ewald energy   TEWEN  =      -220.32663596
  -Hartree energ DENC   =       -12.42928696
  -exchange      EXHF   =         0.00000000
  -V(xc)+E(xc)   XCENC  =       -14.98288157
  PAW double counting   =       176.29039040     -147.31525009
  entropy T*S    EENTRO =         0.00017329
  eigenvalues    EBANDS =       -17.26497798
  atomic energy  EATOM  =       209.99145059
  Solvation  Ediel_sol  =         0.00000000
  ---------------------------------------------------
  free energy    TOTEN  =        -8.92761547 eV

  energy without entropy =       -8.92778876  energy(sigma->0) =       -8.92767323


--------------------------------------------------------------------------------------------------------




--------------------------------------- Iteration      1(   4)  ---------------------------------------


     EDDAV:  cpu time    0.9888: real time    0.9894
       DOS:  cpu time    0.0002: real time    0.0002
    --------------------------------------------
      LOOP:  cpu time    0.9890: real time    0.9896

 eigenvalue-minimisations  :  1960
 total energy-change (2. order) :-0.1178535E-06  (-0.1177043E-06)
 number of electron       8.0000000 magnetization 
 augmentation part        8.0000000 magnetization 

 Free energy of the ion-electron system (eV)
  ---------------------------------------------------
  alpha Z        PSCENC =        17.10940282
  Ewald energy   TEWEN  =      -220.32663596
  -Hartree energ DENC   =       -12.42928696
  -exchange      EXHF   =         0.00000000
  -V(xc)+E(xc)   XCENC  =       -14.98288157
  PAW double counting   =       176.29039040     -147.31525009
  entropy T*S    EENTRO =         0.00017329
  eigenvalues    EBANDS =       -17.26497809
  atomic energy  EATOM  =       209.99145059
  Solvation  Ediel_sol  =         0.00000000
  ---------------------------------------------------
  free energy    TOTEN  =        -8.92761559 eV

  energy without entropy =       -8.92778887  energy(sigma->0) =       -8.92767335


--------------------------------------------------------------------------------------------------------




--------------------------------------- Iteration      1(   5)  ---------------------------------------


     EDDAV:  cpu time    0.3498: real time    0.3508
       DOS:  cpu time    0.0002: real time    0.0002
    CHARGE:  cpu time    0.0111: real time    0.0128
    MIXING:  cpu time    0.0013: real time    0.0029
    --------------------------------------------
      LOOP:  cpu time    0.3625: real time    0.3667

 eigenvalue-minimisations  :  1120
 total energy-change (2. order) : 0.2961542E-10  ( 0.2846902E-13)
 number of electron       7.9999998 magnetization 
 augmentation part       -1.2993891 magnetization 

 Broyden mixing:
  rms(total) = 0.31630E+00    rms(broyden)= 0.31630E+00
  rms(prec ) = 0.70639E+00
  weight for this iteration     100.00

 Free energy of the ion-electron system (eV)
  ---------------------------------------------------
  alpha Z        PSCENC =        17.10940282
  Ewald energy   TEWEN  =      -220.32663596
  -Hartree energ DENC   =       -12.42928696
  -exchange      EXHF   =         0.00000000
  -V(xc)+E(xc)   XCENC  =       -14.98288157
  PAW double counting   =       176.29039040     -147.31525009
  entropy T*S    EENTRO =         0.00017329
  eigenvalues    EBANDS =       -17.26497809
  atomic energy  EATOM  =       209.99145059
  Solvation  Ediel_sol  =         0.00000000
  ---------------------------------------------------
  free energy    TOTEN  =        -8.92761559 eV

  energy without entropy =       -8.92778887  energy(sigma->0) =       -8.92767335


--------------------------------------------------------------------------------------------------------




--------------------------------------- Iteration      1(   6)  ---------------------------------------


    POTLOK:  cpu time    0.0063: real time    0.0089
    SETDIJ:  cpu time    0.0034: real time    0.0034
     EDDAV:  cpu time    0.7137: real time    0.7140
       DOS:  cpu time    0.0003: real time    0.0003
    CHARGE:  cpu time    0.0101: real time    0.0101
    MIXING:  cpu time    0.0006: real time    0.0007
    --------------------------------------------
      LOOP:  cpu time    0.7344: real time    0.7374

 eigenvalue-minimisations  :  1680
 total energy-change (2. order) : 0.7421803E-01  (-0.4069226E-02)
 number of electron       7.9999998 magnetization 
 augmentation part       -1.2887805 magnetization 

 Broyden mixing:
  rms(total) = 0.19477E+00    rms(broyden)= 0.19477E+00
  rms(prec ) = 0.43026E+00
  weight for this iteration     100.00

 eigenvalues of (default mixing * dielectric matrix)
  average eigenvalue GAMMA=   2.5874
  2.5874

 Free energy of the ion-electron system (eV)
  ---------------------------------------------------
  alpha Z        PSCENC =        17.10940282
  Ewald energy   TEWEN  =      -220.32663596
  -Hartree energ DENC   =       -13.57625974
  -exchange      EXHF   =         0.00000000
  -V(xc)+E(xc)   XCENC  =       -14.76777379
  PAW double counting   =       272.71946467     -243.89967023
  entropy T*S    EENTRO =         0.00025154
  eigenvalues    EBANDS =       -16.10362746
  atomic energy  EATOM  =       209.99145059
  Solvation  Ediel_sol  =         0.00000000
  ---------------------------------------------------
  free energy    TOTEN  =        -8.85339756 eV

  energy without entropy =       -8.85364910  energy(sigma->0) =       -8.85348141


--------------------------------------------------------------------------------------------------------




--------------------------------------- Iteration      1(   7)  ---------------------------------------


    POTLOK:  cpu time    0.0050: real time    0.0078
    SETDIJ:  cpu time    0.0032: real time    0.0032
     EDDAV:  cpu time    0.6703: real time    0.6707
       DOS:  cpu time    0.0003: real time    0.0003
    CHARGE:  cpu time    0.0098: real time    0.0098
    MIXING:  cpu time    0.0003: real time    0.0003
    --------------------------------------------
      LOOP:  cpu time    0.6889: real time    0.6921

 eigenvalue-minimisations  :  1624
 total energy-change (2. order) : 0.3262696E-01  (-0.7936583E-02)
 number of electron       7.9999998 magnetization 
 augmentation part       -1.2755912 magnetization 

 Broyden mixing:
  rms(total) = 0.13431E-01    rms(broyden)= 0.13431E-01
  rms(prec ) = 0.33288E-01
  weight for this iteration     100.00

 eigenvalues of (default mixing * dielectric matrix)
  average eigenvalue GAMMA=   2.3221
  2.3221  2.3221

 Free energy of the ion-electron system (eV)
  ---------------------------------------------------
  alpha Z        PSCENC =        17.10940282
  Ewald energy   TEWEN  =      -220.32663596
  -Hartree energ DENC   =       -15.53896603
  -exchange      EXHF   =         0.00000000
  -V(xc)+E(xc)   XCENC  =       -14.38208753
  PAW double counting   =       474.06408375     -445.46788849
  entropy T*S    EENTRO =         0.00063074
  eigenvalues    EBANDS =       -14.27076048
  atomic energy  EATOM  =       209.99145059
  Solvation  Ediel_sol  =         0.00000000
  ---------------------------------------------------
  free energy    TOTEN  =        -8.82077059 eV

  energy without entropy =       -8.82140134  energy(sigma->0) =       -8.82098084


--------------------------------------------------------------------------------------------------------




--------------------------------------- Iteration      1(   8)  ---------------------------------------


    POTLOK:  cpu time    0.0039: real time    0.0042
    SETDIJ:  cpu time    0.0032: real time    0.0032
     EDDAV:  cpu time    0.7327: real time    0.7329
       DOS:  cpu time    0.0003: real time    0.0003
    CHARGE:  cpu time    0.0099: real time    0.0099
    MIXING:  cpu time    0.0003: real time    0.0003
    --------------------------------------------
      LOOP:  cpu time    0.7503: real time    0.7508

 eigenvalue-minimisations  :  1680
 total energy-change (2. order) :-0.1281021E-02  (-0.1601217E-03)
 number of electron       7.9999998 magnetization 
 augmentation part       -1.2766875 magnetization 

 Broyden mixing:
  rms(total) = 0.37709E-02    rms(broyden)= 0.37709E-02
  rms(prec ) = 0.93000E-02
  weight for this iteration     100.00

 eigenvalues of (default mixing * dielectric matrix)
  average eigenvalue GAMMA=   2.2075
  1.3811  2.8383  2.4030

 Free energy of the ion-electron system (eV)
  ---------------------------------------------------
  alpha Z        PSCENC =        17.10940282
  Ewald energy   TEWEN  =      -220.32663596
  -Hartree energ DENC   =       -15.54968964
  -exchange      EXHF   =         0.00000000
  -V(xc)+E(xc)   XCENC  =       -14.35809644
  PAW double counting   =       475.83542717     -447.22509736
  entropy T*S    EENTRO =         0.00049148
  eigenvalues    EBANDS =       -14.29930426
  atomic energy  EATOM  =       209.99145059
  Solvation  Ediel_sol  =         0.00000000
  ---------------------------------------------------
  free energy    TOTEN  =        -8.82205162 eV

  energy without entropy =       -8.82254310  energy(sigma->0) =       -8.82221544


--------------------------------------------------------------------------------------------------------




--------------------------------------- Iteration      1(   9)  ---------------------------------------


    POTLOK:  cpu time    0.0039: real time    0.0041
    SETDIJ:  cpu time    0.0032: real time    0.0032
     EDDAV:  cpu time    0.8257: real time    0.8260
       DOS:  cpu time    0.0003: real time    0.0003
    CHARGE:  cpu time    0.0100: real time    0.0100
    MIXING:  cpu time    0.0003: real time    0.0003
    --------------------------------------------
      LOOP:  cpu time    0.8434: real time    0.8439

 eigenvalue-minimisations  :  1792
 total energy-change (2. order) :-0.2107482E-03  (-0.2306705E-04)
 number of electron       7.9999998 magnetization 
 augmentation part       -1.2769107 magnetization 

 Broyden mixing:
  rms(total) = 0.17749E-02    rms(broyden)= 0.17749E-02
  rms(prec ) = 0.35279E-02
  weight for this iteration     100.00

 eigenvalues of (default mixing * dielectric matrix)
  average eigenvalue GAMMA=   2.1762
  0.9735  3.0878  2.5012  2.1425

 Free energy of the ion-electron system (eV)
  ---------------------------------------------------
  alpha Z        PSCENC =        17.10940282
  Ewald energy   TEWEN  =      -220.32663596
  -Hartree energ DENC   =       -15.56670557
  -exchange      EXHF   =         0.00000000
  -V(xc)+E(xc)   XCENC  =       -14.35129758
  PAW double counting   =       474.32632189     -445.71153146
  entropy T*S    EENTRO =         0.00046089
  eigenvalues    EBANDS =       -14.29372798
  atomic energy  EATOM  =       209.99145059
  Solvation  Ediel_sol  =         0.00000000
  ---------------------------------------------------
  free energy    TOTEN  =        -8.82226236 eV

  energy without entropy =       -8.82272325  energy(sigma->0) =       -8.82241599


--------------------------------------------------------------------------------------------------------




--------------------------------------- Iteration      1(  10)  ---------------------------------------


    POTLOK:  cpu time    0.0040: real time    0.0042
    SETDIJ:  cpu time    0.0032: real time    0.0032
     EDDAV:  cpu time    0.5595: real time    0.5611
       DOS:  cpu time    0.0002: real time    0.0002
    --------------------------------------------
      LOOP:  cpu time    0.5670: real time    0.5688

 eigenvalue-minimisations  :  1456
 total energy-change (2. order) :-0.1190528E-04  (-0.2989622E-05)
 number of electron       7.9999998 magnetization 
 augmentation part       -1.2769107 magnetization 

 Free energy of the ion-electron system (eV)
  ---------------------------------------------------
  alpha Z        PSCENC =        17.10940282
  Ewald energy   TEWEN  =      -220.32663596
  -Hartree energ DENC   =       -15.58447789
  -exchange      EXHF   =         0.00000000
  -V(xc)+E(xc)   XCENC  =       -14.35134530
  PAW double counting   =       472.38399950     -443.76911353
  entropy T*S    EENTRO =         0.00046151
  eigenvalues    EBANDS =       -14.27601601
  atomic energy  EATOM  =       209.99145059
  Solvation  Ediel_sol  =         0.00000000
  ---------------------------------------------------
  free energy    TOTEN  =        -8.82227427 eV

  energy without entropy =       -8.82273577  energy(sigma->0) =       -8.82242810


--------------------------------------------------------------------------------------------------------




 average (electrostatic) potential at core
  the test charge radii are     1.1631
  (the norm of the test charge is              1.0000)
       1 -32.8575       2 -32.8575
 
 
 
 E-fermi :   4.0041     XC(G=0):  -9.1711     alpha+bet : -9.2781


 k-point     1 :       0.0000    0.0000    0.0000
  band No.  band energies     occupation 
      1      -8.9769      2.00000
      2       3.9094      2.03742
      3       3.9094      2.03742
      4       3.9094      2.03742
      5       4.0908     -0.01059
      6       6.4336     -0.00000
      7       6.4336     -0.00000
      8       6.4336     -0.00000
      9      10.3491      0.00000
     10      13.1868      0.00000
     11      13.1868      0.00000
     12      14.6357      0.00000
     13      14.6357      0.00000
     14      14.6357      0.00000
     15      17.7688      0.00000
     16      28.2550      0.00000
     17      28.2550      0.00000
     18      28.2550      0.00000
     19      29.0849      0.00000
     20      29.0849      0.00000
     21      29.0849      0.00000
     22      29.4628      0.00000
     23      29.4628      0.00000
     24      30.1588      0.00000
     25      30.1588      0.00000
     26      30.1588      0.00000
     27      38.6354      0.00000
     28      39.0999      0.00000
     29      39.0999      0.00000
     30      39.0999      0.00000
     31      41.9362      0.00000
     32      41.9362      0.00000
     33      42.5014      0.00000
     34      42.5014      0.00000
     35      43.4432      0.00000
     36      43.6706      0.00000
     37      43.6706      0.00000
     38      43.6706      0.00000
     39      44.0816      0.00000
     40      44.0816      0.00000
     41      44.0816      0.00000
     42      44.8947      0.00000
     43      44.8947      0.00000
     44      44.8947      0.00000
     45      45.3814      0.00000
     46      45.3814      0.00000
     47      45.3814      0.00000
     48      46.5069      0.00000
     49      46.5069      0.00000
     50      46.5069      0.00000
     51      49.9341      0.00000
     52      51.9236      0.00000
     53      51.9236      0.00000
     54      51.9236      0.00000
     55      52.1975      0.00000
     56      52.1975      0.00000

 k-point     2 :       0.2000    0.0000    0.0000
  band No.  band energies     occupation 
      1      -8.4906      2.00000
      2       0.0963      2.00000
      3       3.2186      2.00000
      4       3.2186      2.00000
      5       4.8040     -0.00000
      6       7.3188      0.00000
      7       7.3188      0.00000
      8       8.7110      0.00000
      9      11.9521      0.00000
     10      12.0427      0.00000
     11      12.0427      0.00000
     12      14.0536      0.00000
     13      17.6560      0.00000
     14      17.6560      0.00000
     15      20.7115      0.00000
     16      23.1195      0.00000
     17      23.1195      0.00000
     18      23.5744      0.00000
     19      29.1724      0.00000
     20      29.1724      0.00000
     21      29.7626      0.00000
     22      29.7626      0.00000
     23      30.5667      0.00000
     24      32.2102      0.00000
     25      33.6261      0.00000
     26      35.3197      0.00000
     27      35.3197      0.00000
     28      36.5994      0.00000
     29      36.5994      0.00000
     30      37.5923      0.00000
     31      37.5923      0.00000
     32      39.3599      0.00000
     33      39.3599      0.00000
     34      40.0513      0.00000
     35      40.8265      0.00000
     36      40.9543      0.00000
     37      42.8134      0.00000
     38      42.8134      0.00000
     39      43.5934      0.00000
     40      44.2144      0.00000
     41      44.7042      0.00000
     42      44.7042      0.00000
     43      45.3460      0.00000
     44      47.8138      0.00000
     45      47.8138      0.00000
     46      49.1888      0.00000
     47      49.1888      0.00000
     48      49.4728      0.00000
     49      50.0802      0.00000
     50      50.0802      0.00000
     51      51.7343      0.00000
     52      51.8414      0.00000
     53      54.2387      0.00000
     54      54.2387      0.00000
     55      56.2152      0.00000
     56      56.3725      0.00000

 k-point     3 :       0.4000    0.0000    0.0000
  band No.  band energies     occupation 
      1      -7.2431      2.00000
      2      -3.1299      2.00000
      3       2.5598      2.00000
      4       2.5598      2.00000
      5       4.2110     -0.01271
      6       7.6497      0.00000
      7       7.6497      0.00000
      8      11.1099      0.00000
      9      12.7543      0.00000
     10      13.6706      0.00000
     11      13.6706      0.00000
     12      16.6165      0.00000
     13      17.8243      0.00000
     14      17.8243      0.00000
     15      20.6560      0.00000
     16      22.6039      0.00000
     17      22.6039      0.00000
     18      25.9060      0.00000
     19      26.9439      0.00000
     20      28.3299      0.00000
     21      28.3299      0.00000
     22      30.1948      0.00000
     23      30.1948      0.00000
     24      30.8474      0.00000
     25      30.8474      0.00000
     26      31.4702      0.00000
     27      32.3993      0.00000
     28      35.4271      0.00000
     29      35.4271      0.00000
     30      35.8521      0.00000
     31      35.8521      0.00000
     32      35.8786      0.00000
     33      37.7308      0.00000
     34      38.2469      0.00000
     35      42.5065      0.00000
     36      42.5065      0.00000
     37      42.8746      0.00000
     38      43.4552      0.00000
     39      43.4552      0.00000
     40      44.7765      0.00000
     41      45.4606      0.00000
     42      45.4606      0.00000
     43      48.1309      0.00000
     44      50.5028      0.00000
     45      50.5028      0.00000
     46      52.3525      0.00000
     47      52.3525      0.00000
     48      53.5664      0.00000
     49      54.2466      0.00000
     50      55.3257      0.00000
     51      55.3257      0.00000
     52      55.5261      0.00000
     53      55.5261      0.00000
     54      56.7270      0.00000
     55      56.7270      0.00000
     56      58.1879      0.00000

 k-point     4 :       0.2000    0.2000    0.0000
  band No.  band energies     occupation 
      1      -8.3209      2.00000
      2       0.1330      2.00000
      3       2.2605      2.00000
      4       2.2605      2.00000
      5       5.2062     -0.00000
      6       6.8811      0.00000
      7       8.8876      0.00000
      8       8.8876      0.00000
      9      10.6214      0.00000
     10      13.0275      0.00000
     11      13.8490      0.00000
     12      15.9782      0.00000
     13      15.9782      0.00000
     14      16.7661      0.00000
     15      22.5106      0.00000
     16      22.7166      0.00000
     17      22.7166      0.00000
     18      23.8538      0.00000
     19      24.6169      0.00000
     20      28.8776      0.00000
     21      30.2257      0.00000
     22      30.2257      0.00000
     23      31.4139      0.00000
     24      33.7735      0.00000
     25      33.7735      0.00000
     26      34.4011      0.00000
     27      34.9246      0.00000
     28      36.0657      0.00000
     29      36.0657      0.00000
     30      36.5005      0.00000
     31      37.3009      0.00000
     32      39.7498      0.00000
     33      39.7498      0.00000
     34      40.2925      0.00000
     35      41.5050      0.00000
     36      41.6876      0.00000
     37      41.6876      0.00000
     38      41.9380      0.00000
     39      42.4005      0.00000
     40      45.5797      0.00000
     41      45.5797      0.00000
     42      45.6993      0.00000
     43      45.7692      0.00000
     44      47.9859      0.00000
     45      48.2561      0.00000
     46      48.2561      0.00000
     47      49.3521      0.00000
     48      49.3521      0.00000
     49      49.6681      0.00000
     50      49.8015      0.00000
     51      51.0151      0.00000
     52      53.0463      0.00000
     53      54.6005      0.00000
     54      54.6005      0.00000
     55      54.8254      0.00000
     56      57.5135      0.00000

 k-point     5 :       0.4000    0.2000    0.0000
  band No.  band energies     occupation 
      1      -7.2550      2.00000
      2      -2.4266      2.00000
      3       0.9534      2.00000
      4       1.6832      2.00000
      5       5.5104     -0.00000
      6       7.4648      0.00000
      7       8.8972      0.00000
      8       9.6132      0.00000
      9      13.7438      0.00000
     10      14.0865      0.00000
     11      14.9424      0.00000
     12      16.4727      0.00000
     13      17.6365      0.00000
     14      19.1753      0.00000
     15      19.6210      0.00000
     16      21.3791      0.00000
     17      23.5276      0.00000
     18      24.1545      0.00000
     19      25.7029      0.00000
     20      26.6265      0.00000
     21      27.4615      0.00000
     22      30.1801      0.00000
     23      30.3666      0.00000
     24      30.6696      0.00000
     25      31.1847      0.00000
     26      32.7830      0.00000
     27      33.5789      0.00000
     28      33.8233      0.00000
     29      36.0962      0.00000
     30      36.9930      0.00000
     31      37.2226      0.00000
     32      37.5342      0.00000
     33      38.6455      0.00000
     34      39.5728      0.00000
     35      39.9052      0.00000
     36      41.1606      0.00000
     37      44.2517      0.00000
     38      44.3643      0.00000
     39      44.9737      0.00000
     40      45.2953      0.00000
     41      45.9810      0.00000
     42      46.0884      0.00000
     43      47.4189      0.00000
     44      48.1896      0.00000
     45      48.3857      0.00000
     46      48.8983      0.00000
     47      49.8441      0.00000
     48      52.6965      0.00000
     49      52.9615      0.00000
     50      53.6602      0.00000
     51      55.1677      0.00000
     52      56.2474      0.00000
     53      57.3716      0.00000
     54      57.7008      0.00000
     55      58.8962      0.00000
     56      60.0757      0.00000

 k-point     6 :      -0.4000    0.2000    0.0000
  band No.  band energies     occupation 
      1      -6.4765      2.00000
      2      -3.6910      2.00000
      3       0.1383      2.00000
      4       1.9566      2.00000
      5       5.5972     -0.00000
      6       8.1858      0.00000
      7       8.9764      0.00000
      8      11.2489      0.00000
      9      12.1677      0.00000
     10      13.1711      0.00000
     11      14.7128      0.00000
     12      17.7163      0.00000
     13      18.7449      0.00000
     14      19.4635      0.00000
     15      20.6526      0.00000
     16      23.7078      0.00000
     17      24.1689      0.00000
     18      24.3173      0.00000
     19      25.1599      0.00000
     20      25.6573      0.00000
     21      27.2879      0.00000
     22      28.2936      0.00000
     23      29.3970      0.00000
     24      29.4578      0.00000
     25      30.1362      0.00000
     26      31.5917      0.00000
     27      31.6713      0.00000
     28      33.8385      0.00000
     29      34.3354      0.00000
     30      36.2843      0.00000
     31      37.3880      0.00000
     32      37.5722      0.00000
     33      38.8327      0.00000
     34      39.0999      0.00000
     35      39.5924      0.00000
     36      42.8045      0.00000
     37      43.4451      0.00000
     38      43.7562      0.00000
     39      44.9227      0.00000
     40      46.7129      0.00000
     41      47.8977      0.00000
     42      48.8079      0.00000
     43      49.1251      0.00000
     44      49.9047      0.00000
     45      50.1191      0.00000
     46      50.6366      0.00000
     47      51.8352      0.00000
     48      52.5143      0.00000
     49      53.8764      0.00000
     50      54.0285      0.00000
     51      55.2754      0.00000
     52      55.8244      0.00000
     53      56.2114      0.00000
     54      56.3620      0.00000
     55      57.4814      0.00000
     56      57.9567      0.00000

 k-point     7 :      -0.2000    0.2000    0.0000
  band No.  band energies     occupation 
      1      -7.7125      2.00000
      2      -1.6084      2.00000
      3       0.7008      2.00000
      4       2.8859      2.00000
      5       5.9725     -0.00000
      6       7.8930      0.00000
      7       8.1858      0.00000
      8       9.0625      0.00000
      9      11.1313      0.00000
     10      13.8094      0.00000
     11      14.3210      0.00000
     12      16.1510      0.00000
     13      17.5019      0.00000
     14      18.3174      0.00000
     15      21.6081      0.00000
     16      22.5992      0.00000
     17      23.7797      0.00000
     18      23.9106      0.00000
     19      24.7093      0.00000
     20      25.9341      0.00000
     21      30.0522      0.00000
     22      30.2966      0.00000
     23      31.0463      0.00000
     24      31.5186      0.00000
     25      31.7043      0.00000
     26      32.0448      0.00000
     27      35.2683      0.00000
     28      35.4924      0.00000
     29      36.2228      0.00000
     30      37.0091      0.00000
     31      37.0211      0.00000
     32      38.3646      0.00000
     33      38.8878      0.00000
     34      39.1190      0.00000
     35      39.9226      0.00000
     36      40.3657      0.00000
     37      41.0286      0.00000
     38      42.3552      0.00000
     39      44.1340      0.00000
     40      45.4047      0.00000
     41      45.9837      0.00000
     42      46.1669      0.00000
     43      47.8665      0.00000
     44      49.0863      0.00000
     45      49.2099      0.00000
     46      49.7067      0.00000
     47      50.5037      0.00000
     48      51.0573      0.00000
     49      53.9984      0.00000
     50      54.0988      0.00000
     51      54.2702      0.00000
     52      55.2423      0.00000
     53      55.2601      0.00000
     54      56.3412      0.00000
     55      57.2043      0.00000
     56      57.9142      0.00000

 k-point     8 :       0.4000    0.4000    0.0000
  band No.  band energies     occupation 
      1      -6.4095      2.00000
      2      -3.4563      2.00000
      3       0.9395      2.00000
      4       0.9395      2.00000
      5       4.4242     -0.00000
      6       5.2285     -0.00000
      7      12.4131      0.00000
      8      12.4131      0.00000
      9      13.7638      0.00000
     10      15.8420      0.00000
     11      16.5652      0.00000
     12      17.7128      0.00000
     13      17.7128      0.00000
     14      19.1786      0.00000
     15      20.0374      0.00000
     16      20.0374      0.00000
     17      20.2476      0.00000
     18      21.6073      0.00000
     19      26.0267      0.00000
     20      26.2201      0.00000
     21      26.2201      0.00000
     22      26.8840      0.00000
     23      29.3702      0.00000
     24      31.8054      0.00000
     25      31.8054      0.00000
     26      32.0097      0.00000
     27      32.2983      0.00000
     28      36.4277      0.00000
     29      36.4277      0.00000
     30      36.7502      0.00000
     31      38.7631      0.00000
     32      38.9899      0.00000
     33      39.7443      0.00000
     34      40.2618      0.00000
     35      40.2618      0.00000
     36      41.8587      0.00000
     37      42.2468      0.00000
     38      42.2468      0.00000
     39      43.0854      0.00000
     40      43.5427      0.00000
     41      44.9984      0.00000
     42      44.9984      0.00000
     43      46.1459      0.00000
     44      50.8860      0.00000
     45      50.8860      0.00000
     46      51.3120      0.00000
     47      53.5163      0.00000
     48      53.8138      0.00000
     49      54.7991      0.00000
     50      55.2507      0.00000
     51      55.2507      0.00000
     52      55.5391      0.00000
     53      56.0456      0.00000
     54      57.0600      0.00000
     55      57.0600      0.00000
     56      59.2764      0.00000

 k-point     9 :      -0.4000    0.4000    0.0000
  band No.  band energies     occupation 
      1      -5.3236      2.00000
      2      -4.6582      2.00000
      3      -0.3059      2.00000
      4       1.0570      2.00000
      5       4.8867     -0.00000
      6       7.0100      0.00000
      7      11.7307      0.00000
      8      11.8813      0.00000
      9      12.8010      0.00000
     10      14.1594      0.00000
     11      17.2697      0.00000
     12      19.0289      0.00000
     13      19.0833      0.00000
     14      19.6730      0.00000
     15      20.1285      0.00000
     16      20.5442      0.00000
     17      23.6997      0.00000
     18      23.7726      0.00000
     19      23.9539      0.00000
     20      24.0789      0.00000
     21      25.6003      0.00000
     22      26.6619      0.00000
     23      27.3182      0.00000
     24      28.7811      0.00000
     25      32.1543      0.00000
     26      32.8014      0.00000
     27      32.8104      0.00000
     28      34.9266      0.00000
     29      36.2471      0.00000
     30      36.8087      0.00000
     31      36.9171      0.00000
     32      37.6475      0.00000
     33      37.8709      0.00000
     34      38.7286      0.00000
     35      40.5640      0.00000
     36      42.9608      0.00000
     37      43.2690      0.00000
     38      45.0141      0.00000
     39      45.0402      0.00000
     40      45.2220      0.00000
     41      46.7306      0.00000
     42      47.1345      0.00000
     43      49.4188      0.00000
     44      50.0808      0.00000
     45      50.4915      0.00000
     46      52.1370      0.00000
     47      52.7124      0.00000
     48      53.3626      0.00000
     49      53.6871      0.00000
     50      53.9252      0.00000
     51      54.7757      0.00000
     52      55.1284      0.00000
     53      55.2735      0.00000
     54      56.6618      0.00000
     55      57.6145      0.00000
     56      58.6899      0.00000

 k-point    10 :      -0.4000    0.4000    0.2000
  band No.  band energies     occupation 
      1      -6.0332      2.00000
      2      -3.8334      2.00000
      3      -0.2461      2.00000
      4       0.7387      2.00000
      5       7.2494      0.00000
      6       7.4919      0.00000
      7       8.2178      0.00000
      8      11.3535      0.00000
      9      12.9200      0.00000
     10      14.3103      0.00000
     11      17.1766      0.00000
     12      17.6214      0.00000
     13      18.3123      0.00000
     14      19.8786      0.00000
     15      20.0994      0.00000
     16      23.0299      0.00000
     17      23.4834      0.00000
     18      24.3433      0.00000
     19      24.5867      0.00000
     20      24.6898      0.00000
     21      25.8146      0.00000
     22      27.0811      0.00000
     23      29.2168      0.00000
     24      29.7265      0.00000
     25      31.1232      0.00000
     26      31.7408      0.00000
     27      32.1680      0.00000
     28      32.4765      0.00000
     29      33.0558      0.00000
     30      36.6901      0.00000
     31      37.7867      0.00000
     32      38.8563      0.00000
     33      38.8915      0.00000
     34      40.2254      0.00000
     35      42.9688      0.00000
     36      43.1248      0.00000
     37      43.7848      0.00000
     38      44.0908      0.00000
     39      45.0099      0.00000
     40      45.3670      0.00000
     41      45.7358      0.00000
     42      46.6171      0.00000
     43      48.1771      0.00000
     44      48.8189      0.00000
     45      50.6890      0.00000
     46      52.3409      0.00000
     47      52.5576      0.00000
     48      53.3065      0.00000
     49      53.3239      0.00000
     50      54.0849      0.00000
     51      54.1820      0.00000
     52      56.0978      0.00000
     53      57.1393      0.00000
     54      57.7380      0.00000
     55      57.7756      0.00000
     56      58.1476      0.00000


--------------------------------------------------------------------------------------------------------


 soft charge-density along one line, spin component           1
         0         1         2         3         4         5         6         7         8         9
 total charge-density along one line
 
 pseudopotential strength for first ion, spin component:           1
 14.465   0.000  18.047   0.000   0.000   0.000   0.000   0.000   0.000   0.000   0.000   0.000   0.000   0.000   0.000   0.000
 18.047   0.000  22.531   0.000   0.000   0.000   0.000   0.000   0.000   0.000   0.000   0.000   0.000   0.000   0.000   0.000
  0.000   0.000   0.000   0.000   3.225   0.000   0.000   0.000   0.000   0.000   5.493   0.000   0.000   0.000   0.000   0.000
  0.000   0.000   0.000   0.000   0.000   0.000   3.225   0.000   0.000   0.000   0.000   0.000   5.493   0.000   0.000   0.000
  0.000   0.000   0.000   0.000   0.000   0.000   0.000   0.000   3.225   0.000   0.000   0.000   0.000   0.000   5.493   0.000
  0.000   0.000   0.000   0.000   5.493   0.000   0.000   0.000   0.000   0.000   9.415   0.000   0.000   0.000   0.000   0.000
  0.000   0.000   0.000   0.000   0.000   0.000   5.493   0.000   0.000   0.000   0.000   0.000   9.415   0.000   0.000   0.000
  0.000   0.000   0.000   0.000   0.000   0.000   0.000   0.000   5.493   0.000   0.000   0.000   0.000   0.000   9.415   0.000
  0.000   0.000   0.000   0.000   0.000   0.000   0.003   0.000   0.000   0.000   0.000   0.000   0.005   0.000   0.000   0.000
  0.000   0.000   0.000   0.000   0.000   0.000   0.000   0.000   0.003   0.000   0.000   0.000   0.000   0.000   0.005   0.000
  0.000   0.000   0.000   0.000   0.000   0.000  -0.000   0.000   0.000   0.000   0.000   0.000  -0.000   0.000   0.000   0.000
  0.000   0.000   0.000   0.000   0.003   0.000   0.000   0.000   0.000   0.000   0.005   0.000   0.000   0.000   0.000   0.000
 -0.000   0.000  -0.000   0.000   0.000   0.000   0.000   0.000  -0.000   0.000   0.000   0.000   0.000   0.000  -0.000   0.000
 total augmentation occupancy for first ion, spin component:           1
  3.737  -1.152  -0.000   0.000  -0.000   0.000  -0.000   0.000   0.000   0.000   0.000   0.000   0.000
 -1.152   0.491   0.000   0.000   0.000  -0.000  -0.000  -0.000  -0.000   0.000   0.000   0.000  -0.000
 -0.000   0.000   2.108   0.000  -0.000  -0.359   0.000   0.000   0.000   0.000   0.000   0.189   0.000
  0.000   0.000   0.000   2.108   0.000  -0.000  -0.359  -0.000   0.189   0.000   0.000   0.000   0.000
 -0.000  -0.000  -0.000   0.000   2.108  -0.000  -0.000  -0.359  -0.000   0.189  -0.000   0.000   0.000
 -0.000  -0.000  -0.359   0.000   0.000   0.069  -0.000   0.000   0.000  -0.000   0.000  -0.032   0.000
  0.000   0.000   0.000  -0.359   0.000   0.000   0.069   0.000  -0.032  -0.000  -0.000  -0.000  -0.000
  0.000  -0.000  -0.000  -0.000  -0.359  -0.000   0.000   0.069   0.000  -0.032  -0.000  -0.000   0.000
  0.000   0.000   0.000   0.189   0.000   0.000  -0.032  -0.000   0.030   0.000  -0.000   0.000  -0.000
  0.000   0.000  -0.000  -0.000   0.189  -0.000  -0.000  -0.032  -0.000   0.030  -0.000  -0.000  -0.000
  0.000   0.000   0.000   0.000  -0.000  -0.000  -0.000   0.000   0.000   0.000   0.009  -0.000   0.000
  0.000  -0.000   0.189  -0.000  -0.000  -0.032  -0.000   0.000   0.000  -0.000  -0.000   0.030   0.000
  0.000   0.000  -0.000   0.000  -0.000   0.000  -0.000   0.000  -0.000   0.000   0.000   0.000   0.009


------------------------ aborting loop because EDIFF is reached ----------------------------------------


    CHARGE:  cpu time    0.0096: real time    0.0096
    FORLOC:  cpu time    0.0004: real time    0.0005
    FORNL :  cpu time    0.0066: real time    0.0069
    STRESS:  cpu time    0.0516: real time    0.0524
    FORCOR:  cpu time    0.0035: real time    0.0035
    FORHAR:  cpu time    0.0011: real time    0.0012
    MIXING:  cpu time    0.0004: real time    0.0004
    OFIELD:  cpu time    0.0001: real time    0.0002

  FORCE on cell =-STRESS in cart. coord.  units (eV):
  Direction    XX          YY          ZZ          XY          YZ          ZX
  --------------------------------------------------------------------------------------
  Alpha Z    17.10940    17.10940    17.10940
  Ewald     -73.44225   -73.44225   -73.44225     0.00000     0.00000     0.00000
  Hartree     5.19480     5.19480     5.19480     0.00000     0.00000     0.00000
  E(xc)     -27.86644   -27.86644   -27.86644     0.00000     0.00000     0.00000
  Local     -23.25365   -23.25365   -23.25365     0.00000     0.00000     0.00000
  n-local    41.02641    41.33414    38.11599     1.32284    -0.51338     0.37818
  augment     2.37950     2.37950     2.37950    -0.00000    -0.00000    -0.00000
  Kinetic    63.70719    62.66115    57.38072     4.53247    -1.40572     1.23379
  Fock        0.00000     0.00000     0.00000     0.00000     0.00000     0.00000
  -------------------------------------------------------------------------------------
  Total       1.52991     1.52991     1.52991     0.00000    -0.00000    -0.00000
  in kB      54.85495    54.85495    54.85495     0.00000    -0.00000    -0.00000
  external pressure =       54.85 kB  Pullay stress =        0.00 kB


 VOLUME and BASIS-vectors are now :
 -----------------------------------------------------------------------------
  energy-cutoff  :      450.00
  volume of cell :       44.68
      direct lattice vectors                 reciprocal lattice vectors
     0.000000000  2.816500000  2.816500000    -0.177525297  0.177525297  0.177525297
     2.816500000  0.000000000  2.816500000     0.177525297 -0.177525297  0.177525297
     2.816500000  2.816500000  0.000000000     0.177525297  0.177525297 -0.177525297

  length of vectors
     3.983132498  3.983132498  3.983132498     0.307482835  0.307482835  0.307482835


 FORCES acting on ions
    electron-ion (+dipol)            ewald-force                    non-local-force                 convergence-correction
 -----------------------------------------------------------------------------------------------
   -.105E-06 -.105E-06 -.105E-06   0.204E-14 0.421E-14 0.352E-14   -.139E-16 -.312E-16 -.173E-16   0.774E-08 0.774E-08 0.774E-08
   0.105E-06 0.105E-06 0.105E-06   -.214E-14 -.407E-14 -.341E-14   0.104E-16 0.173E-16 0.199E-16   -.774E-08 -.774E-08 -.774E-08
 -----------------------------------------------------------------------------------------------
   -.378E-13 0.725E-14 0.284E-14   -.101E-15 0.144E-15 0.110E-15   -.347E-17 -.139E-16 0.260E-17   0.174E-15 -.173E-14 0.955E-15
 
 
 POSITION                                       TOTAL-FORCE (eV/Angst)
 -----------------------------------------------------------------------------------
      0.00000      0.00000      0.00000        -0.000000     -0.000000     -0.000000
      1.40825      1.40825      1.40825         0.000000      0.000000      0.000000
 -----------------------------------------------------------------------------------
    total drift:                               -0.000000      0.000000      0.000000


--------------------------------------------------------------------------------------------------------



  FREE ENERGIE OF THE ION-ELECTRON SYSTEM (eV)
  ---------------------------------------------------
  free  energy   TOTEN  =        -8.82227427 eV

  energy  without entropy=       -8.82273577  energy(sigma->0) =       -8.82242810
 


--------------------------------------------------------------------------------------------------------


    POTLOK:  cpu time    0.0071: real time    0.0078


--------------------------------------------------------------------------------------------------------


 writing wavefunctions
     LOOP+:  cpu time    6.6914: real time    7.0300
    4ORBIT:  cpu time    0.0000: real time    0.0000

 total amount of memory used by VASP MPI-rank0    32164. kBytes
=======================================================================

   base      :      30000. kBytes
   nonl-proj :       1080. kBytes
   fftplans  :        272. kBytes
   grid      :        626. kBytes
   one-center:         16. kBytes
   wavefun   :        170. kBytes
 
  
  
 General timing and accounting informations for this job:
 ========================================================
  
                  Total CPU time used (sec):        7.510
                            User time (sec):        6.545
                          System time (sec):        0.965
                         Elapsed time (sec):        8.613
  
                   Maximum memory used (kb):       52008.
                   Average memory used (kb):           0.
  
                          Minor page faults:        28250
                          Major page faults:           65
                 Voluntary context switches:         1815
