 vasp.5.4.4.18Apr17-6-g9f103f2a35 (build Nov 08 2017 12:56:59) complex          
  
 executed on             LinuxIFC date 2020.03.24  20:45:28
 running on   56 total cores
 distrk:  each k-point on   56 cores,    1 groups
 distr:  one band on NCORES_PER_BAND=   1 cores,   56 groups


--------------------------------------------------------------------------------------------------------


 INCAR:
 POTCAR:    PAW_PBE Ge 05Jan2001                  

 ----------------------------------------------------------------------------- 
|                                                                             |
|           W    W    AA    RRRRR   N    N  II  N    N   GGGG   !!!           |
|           W    W   A  A   R    R  NN   N  II  NN   N  G    G  !!!           |
|           W    W  A    A  R    R  N N  N  II  N N  N  G       !!!           |
|           W WW W  AAAAAA  RRRRR   N  N N  II  N  N N  G  GGG   !            |
|           WW  WW  A    A  R   R   N   NN  II  N   NN  G    G                |
|           W    W  A    A  R    R  N    N  II  N    N   GGGG   !!!           |
|                                                                             |
|      For optimal performance we recommend to set                            |
|        NCORE= 4 - approx SQRT( number of cores)                             |
|      NCORE specifies how many cores store one orbital (NPAR=cpu/NCORE).     |
|      This setting can  greatly improve the performance of VASP for DFT.     |
|      The default,   NCORE=1            might be grossly inefficient         |
|      on modern multi-core architectures or massively parallel machines.     |
|      Do your own testing !!!!                                               |
|      Unfortunately you need to use the default for GW and RPA calculations. |
|      (for HF NCORE is supported but not extensively tested yet)             |
|                                                                             |
 ----------------------------------------------------------------------------- 

 POTCAR:    PAW_PBE Ge 05Jan2001                  
   VRHFIN =Ge: s2p2                                                             
   LEXCH  = PE                                                                  
   EATOM  =   104.9960 eV,    7.7170 Ry                                         
                                                                                
   TITEL  = PAW_PBE Ge 05Jan2001                                                
   LULTRA =        F    use ultrasoft PP ?                                      
   IUNSCR =        1    unscreen: 0-lin 1-nonlin 2-no                           
   RPACOR =    2.170    partial core radius                                     
   POMASS =   72.610; ZVAL   =    4.000    mass and valenz                      
   RCORE  =    2.300    outmost cutoff radius                                   
   RWIGS  =    2.300; RWIGS  =    1.217    wigner-seitz radius (au A)           
   ENMAX  =  173.807; ENMIN  =  130.355 eV                                      
   ICORE  =        3    local potential                                         
   LCOR   =        T    correct aug charges                                     
   LPAW   =        T    paw PP                                                  
   EAUG   =  385.843                                                            
   DEXC   =    0.000                                                            
   RMAX   =    2.342    core radius for proj-oper                               
   RAUG   =    1.300    factor for augmentation sphere                          
   RDEP   =    2.318    radius for radial grids                                 
   RDEPT  =    2.103    core radius for aug-charge                              
                                                                                
   Atomic configuration                                                         
   10 entries                                                                   
     n  l   j            E        occ.                                          
     1  0  0.50    -10959.8463   2.0000                                         
     2  0  0.50     -1371.6056   2.0000                                         
     2  1  1.50     -1198.4791   6.0000                                         
     3  0  0.50      -168.4733   2.0000                                         
     3  1  1.50      -115.6019   6.0000                                         
     3  2  2.50       -29.3106  10.0000                                         
     4  0  0.50       -11.7309   2.0000                                         
     4  1  0.50        -3.8952   2.0000                                         
     4  2  1.50        -4.0817   0.0000                                         
     4  3  2.50        -4.0817   0.0000                                         
   Description                                                                  
     l       E           TYP  RCUT    TYP  RCUT                                 
     0    -11.7309493     23  2.300                                             
     0     -7.4578696     23  2.300                                             
     1     -3.8952261     23  2.300                                             
     1      6.1178114     23  2.300                                             
     2     -4.0817478     23  2.300                                             
     3     -1.3605826      7  2.300                                             
  local pseudopotential read in
  partial core-charges read in
  partial kinetic energy density read in
  atomic valenz-charges read in
  non local Contribution for L=           0  read in
    real space projection operators read in
  non local Contribution for L=           0  read in
    real space projection operators read in
  non local Contribution for L=           1  read in
    real space projection operators read in
  non local Contribution for L=           1  read in
    real space projection operators read in
  non local Contribution for L=           2  read in
    real space projection operators read in
    PAW grid and wavefunctions read in
 
   number of l-projection  operators is LMAX  =           5
   number of lm-projection operators is LMMAX =          13
 
  PAW_PBE Ge 05Jan2001                  :
 energy of atom  1       EATOM= -104.9960
 kinetic energy error for atom=    0.0003 (will be added to EATOM!!)
 
 
 POSCAR: Ge                                      
  positions in direct lattice
  No initial velocities read in
 exchange correlation table for  LEXCH =        8
   RHO(1)=    0.500       N(1)  =     2000
   RHO(2)=  100.500       N(2)  =     4000
 


--------------------------------------------------------------------------------------------------------


 ion  position               nearest neighbor table
   1  0.000  0.000  0.000-   2 2.44   2 2.44   2 2.44   2 2.44
   2  0.250  0.250  0.250-   1 2.44   1 2.44   1 2.44   1 2.44
 
  LATTYP: Found a face centered cubic cell.
 ALAT       =     5.6330000000
  
  Lattice vectors:
  
 A1 = (   0.0000000000,   2.8165000000,   2.8165000000)
 A2 = (   2.8165000000,   0.0000000000,   2.8165000000)
 A3 = (   2.8165000000,   2.8165000000,   0.0000000000)


Analysis of symmetry for initial positions (statically):
=====================================================================
 Subroutine PRICEL returns:
 Original cell was already a primitive cell.
 

 Routine SETGRP: Setting up the symmetry group for a 
 face centered cubic supercell.


 Subroutine GETGRP returns: Found 48 space group operations
 (whereof 24 operations were pure point group operations)
 out of a pool of 48 trial point group operations.


The static configuration has the point symmetry T_d .
 The point group associated with its full space group is O_h .


Analysis of symmetry for dynamics (positions and initial velocities):
=====================================================================
 Subroutine PRICEL returns:
 Original cell was already a primitive cell.
 

 Routine SETGRP: Setting up the symmetry group for a 
 face centered cubic supercell.


 Subroutine GETGRP returns: Found 48 space group operations
 (whereof 24 operations were pure point group operations)
 out of a pool of 48 trial point group operations.


The dynamic configuration has the point symmetry T_d .
 The point group associated with its full space group is O_h .


 Subroutine INISYM returns: Found 48 space group operations
 (whereof 24 operations are pure point group operations),
 and found     1 'primitive' translations

 
 
 KPOINTS: KPOINTS created by Atomic Simulation Env

Automatic generation of k-mesh.
Space group operators:
 irot       det(A)        alpha          n_x          n_y          n_z        tau_x        tau_y        tau_z
    1     1.000000     0.000000     1.000000     0.000000     0.000000     0.000000     0.000000     0.000000
    2     1.000000   120.000000    -0.577350    -0.577350    -0.577350     0.000000     0.000000     0.000000
    3     1.000000   120.000000     0.577350     0.577350     0.577350     0.000000     0.000000     0.000000
    4    -1.000000    90.000000     0.000000     0.000000    -1.000000     0.000000     0.000000     0.000000
    5    -1.000000   180.000000     0.000000     0.707107     0.707107     0.000000     0.000000     0.000000
    6    -1.000000    90.000000     0.000000     1.000000     0.000000     0.000000     0.000000     0.000000
    7     1.000000   180.000000     0.000000     0.000000     1.000000     0.000000     0.000000     0.000000
    8     1.000000   120.000000    -0.577350     0.577350     0.577350     0.000000     0.000000     0.000000
    9     1.000000   120.000000    -0.577350     0.577350    -0.577350     0.000000     0.000000     0.000000
   10    -1.000000    90.000000     0.000000     0.000000     1.000000     0.000000     0.000000     0.000000
   11    -1.000000    90.000000    -1.000000     0.000000     0.000000     0.000000     0.000000     0.000000
   12    -1.000000   180.000000     0.707107     0.000000     0.707107     0.000000     0.000000     0.000000
   13     1.000000   120.000000     0.577350    -0.577350     0.577350     0.000000     0.000000     0.000000
   14     1.000000   120.000000    -0.577350    -0.577350     0.577350     0.000000     0.000000     0.000000
   15     1.000000   180.000000     1.000000     0.000000     0.000000     0.000000     0.000000     0.000000
   16    -1.000000    90.000000     0.000000    -1.000000     0.000000     0.000000     0.000000     0.000000
   17    -1.000000   180.000000     0.707107     0.707107     0.000000     0.000000     0.000000     0.000000
   18    -1.000000    90.000000     1.000000     0.000000     0.000000     0.000000     0.000000     0.000000
   19     1.000000   120.000000     0.577350    -0.577350    -0.577350     0.000000     0.000000     0.000000
   20     1.000000   180.000000     0.000000     1.000000     0.000000     0.000000     0.000000     0.000000
   21     1.000000   120.000000     0.577350     0.577350    -0.577350     0.000000     0.000000     0.000000
   22    -1.000000   180.000000     0.000000    -0.707107     0.707107     0.000000     0.000000     0.000000
   23    -1.000000   180.000000     0.707107    -0.707107     0.000000     0.000000     0.000000     0.000000
   24    -1.000000   180.000000     0.707107     0.000000    -0.707107     0.000000     0.000000     0.000000
   25    -1.000000     0.000000     1.000000     0.000000     0.000000     0.250000     0.250000     0.250000
   26    -1.000000   120.000000    -0.577350    -0.577350    -0.577350     0.250000     0.250000     0.250000
   27    -1.000000   120.000000     0.577350     0.577350     0.577350     0.250000     0.250000     0.250000
   28     1.000000    90.000000     0.000000     0.000000    -1.000000     0.250000     0.250000     0.250000
   29     1.000000   180.000000     0.000000     0.707107     0.707107     0.250000     0.250000     0.250000
   30     1.000000    90.000000     0.000000     1.000000     0.000000     0.250000     0.250000     0.250000
   31    -1.000000   180.000000     0.000000     0.000000     1.000000     0.250000     0.250000     0.250000
   32    -1.000000   120.000000    -0.577350     0.577350     0.577350     0.250000     0.250000     0.250000
   33    -1.000000   120.000000    -0.577350     0.577350    -0.577350     0.250000     0.250000     0.250000
   34     1.000000    90.000000     0.000000     0.000000     1.000000     0.250000     0.250000     0.250000
   35     1.000000    90.000000    -1.000000     0.000000     0.000000     0.250000     0.250000     0.250000
   36     1.000000   180.000000     0.707107     0.000000     0.707107     0.250000     0.250000     0.250000
   37    -1.000000   120.000000     0.577350    -0.577350     0.577350     0.250000     0.250000     0.250000
   38    -1.000000   120.000000    -0.577350    -0.577350     0.577350     0.250000     0.250000     0.250000
   39    -1.000000   180.000000     1.000000     0.000000     0.000000     0.250000     0.250000     0.250000
   40     1.000000    90.000000     0.000000    -1.000000     0.000000     0.250000     0.250000     0.250000
   41     1.000000   180.000000     0.707107     0.707107     0.000000     0.250000     0.250000     0.250000
   42     1.000000    90.000000     1.000000     0.000000     0.000000     0.250000     0.250000     0.250000
   43    -1.000000   120.000000     0.577350    -0.577350    -0.577350     0.250000     0.250000     0.250000
   44    -1.000000   180.000000     0.000000     1.000000     0.000000     0.250000     0.250000     0.250000
   45    -1.000000   120.000000     0.577350     0.577350    -0.577350     0.250000     0.250000     0.250000
   46     1.000000   180.000000     0.000000    -0.707107     0.707107     0.250000     0.250000     0.250000
   47     1.000000   180.000000     0.707107    -0.707107     0.000000     0.250000     0.250000     0.250000
   48     1.000000   180.000000     0.707107     0.000000    -0.707107     0.250000     0.250000     0.250000
 
 Subroutine IBZKPT returns following result:
 ===========================================
 
 Found      4 irreducible k-points:
 
 Following reciprocal coordinates:
            Coordinates               Weight
  0.000000  0.000000  0.000000      1.000000
  0.333333  0.000000  0.000000      8.000000
  0.333333  0.333333  0.000000      6.000000
 -0.333333  0.333333  0.000000     12.000000
 
 Following cartesian coordinates:
            Coordinates               Weight
  0.000000  0.000000  0.000000      1.000000
 -0.059175  0.059175  0.059175      8.000000
  0.000000  0.000000  0.118350      6.000000
  0.118350 -0.118350  0.000000     12.000000
 


--------------------------------------------------------------------------------------------------------




 Dimension of arrays:
   k-points           NKPTS =      4   k-points in BZ     NKDIM =      4   number of bands    NBANDS=     56
   number of dos      NEDOS =    301   number of ions     NIONS =      2
   non local maximal  LDIM  =      5   non local SUM 2l+1 LMDIM =     13
   total plane-waves  NPLWV =  13824
   max r-space proj   IRMAX =      1   max aug-charges    IRDMAX=  17012
   dimension x,y,z NGX =    24 NGY =   24 NGZ =   24
   dimension x,y,z NGXF=    48 NGYF=   48 NGZF=   48
   support grid    NGXF=    48 NGYF=   48 NGZF=   48
   ions per type =               2
   NGX,Y,Z   is equivalent  to a cutoff of  10.02, 10.02, 10.02 a.u.
   NGXF,Y,Z  is equivalent  to a cutoff of  20.03, 20.03, 20.03 a.u.

 SYSTEM =  unknown system                          
 POSCAR =  Ge                                      

 Startparameter for this run:
   NWRITE =      2    write-flag & timer
   PREC   = n         normal or accurate (medium, high low for compatibility)
   ISTART =      0    job   : 0-new  1-cont  2-samecut
   ICHARG =      2    charge: 1-file 2-atom 10-const
   ISPIN  =      1    spin polarized calculation?
   LNONCOLLINEAR =      F non collinear calculations
   LSORBIT =      F    spin-orbit coupling
   INIWAV =      1    electr: 0-lowe 1-rand  2-diag
   LASPH  =      F    aspherical Exc in radial PAW
   METAGGA=      F    non-selfconsistent MetaGGA calc.

 Electronic Relaxation 1
   ENCUT  =  450.0 eV  33.07 Ry    5.75 a.u.   6.89  6.89  6.89*2*pi/ulx,y,z
   ENINI  =  450.0     initial cutoff
   ENAUG  =  385.8 eV  augmentation charge cutoff
   NELM   =     60;   NELMIN=  2; NELMDL= -5     # of ELM steps 
   EDIFF  = 0.1E-03   stopping-criterion for ELM
   LREAL  =      F    real-space projection
   NLSPLINE    = F    spline interpolate recip. space projectors
   LCOMPAT=      F    compatible to vasp.4.4
   GGA_COMPAT  = T    GGA compatible to vasp.4.4-vasp.4.6
   LMAXPAW     = -100 max onsite density
   LMAXMIX     =    2 max onsite mixed and CHGCAR
   VOSKOWN=      0    Vosko Wilk Nusair interpolation
   ROPT   =    0.00000
 Ionic relaxation
   EDIFFG = 0.1E-02   stopping-criterion for IOM
   NSW    =      0    number of steps for IOM
   NBLOCK =      1;   KBLOCK =      1    inner block; outer block 
   IBRION =     -1    ionic relax: 0-MD 1-quasi-New 2-CG
   NFREE  =      0    steps in history (QN), initial steepest desc. (CG)
   ISIF   =      2    stress and relaxation
   IWAVPR =     10    prediction:  0-non 1-charg 2-wave 3-comb
   ISYM   =      2    0-nonsym 1-usesym 2-fastsym
   LCORR  =      T    Harris-Foulkes like correction to forces

   POTIM  = 0.5000    time-step for ionic-motion
   TEIN   =    0.0    initial temperature
   TEBEG  =    0.0;   TEEND  =   0.0 temperature during run
   SMASS  =  -3.00    Nose mass-parameter (am)
   estimated Nose-frequenzy (Omega)   =  0.10E-29 period in steps =****** mass=  -0.363E-27a.u.
   SCALEE = 1.0000    scale energy and forces
   NPACO  =    256;   APACO  = 16.0  distance and # of slots for P.C.
   PSTRESS=    0.0 pullay stress

  Mass of Ions in am
   POMASS =  72.61
  Ionic Valenz
   ZVAL   =   4.00
  Atomic Wigner-Seitz radii
   RWIGS  =  -1.00
  virtual crystal weights 
   VCA    =   1.00
   NELECT =       8.0000    total number of electrons
   NUPDOWN=      -1.0000    fix difference up-down

 DOS related values:
   EMIN   =  10.00;   EMAX   =-10.00  energy-range for DOS
   EFERMI =   0.00
   ISMEAR =     1;   SIGMA  =   0.05  broadening in eV -4-tet -1-fermi 0-gaus

 Electronic relaxation 2 (details)
   IALGO  =     53    algorithm
   LDIAG  =      T    sub-space diagonalisation (order eigenvalues)
   LSUBROT=      F    optimize rotation matrix (better conditioning)
   TURBO    =      0    0=normal 1=particle mesh
   IRESTART =      0    0=no restart 2=restart with 2 vectors
   NREBOOT  =      0    no. of reboots
   NMIN     =      0    reboot dimension
   EREF     =   0.00    reference energy to select bands
   IMIX   =      4    mixing-type and parameters
     AMIX     =   0.40;   BMIX     =  1.00
     AMIX_MAG =   1.60;   BMIX_MAG =  1.00
     AMIN     =   0.10
     WC   =   100.;   INIMIX=   1;  MIXPRE=   1;  MAXMIX= -45

 Intra band minimization:
   WEIMIN = 0.0000     energy-eigenvalue tresh-hold
   EBREAK =  0.45E-06  absolut break condition
   DEPER  =   0.30     relativ break condition  

   TIME   =   0.40     timestep for ELM

  volume/ion in A,a.u.               =      22.34       150.77
  Fermi-wavevector in a.u.,A,eV,Ry     =   0.922681  1.743615 11.583196  0.851341
  Thomas-Fermi vector in A             =   2.048235
 
 Write flags
   LWAVE        =      T    write WAVECAR
   LDOWNSAMPLE  =      F    k-point downsampling of WAVECAR
   LCHARG       =      T    write CHGCAR
   LVTOT        =      F    write LOCPOT, total local potential
   LVHAR        =      F    write LOCPOT, Hartree potential only
   LELF         =      F    write electronic localiz. function (ELF)
   LORBIT       =      0    0 simple, 1 ext, 2 COOP (PROOUT), +10 PAW based schemes


 Dipole corrections
   LMONO  =      F    monopole corrections only (constant potential shift)
   LDIPOL =      F    correct potential (dipole corrections)
   IDIPOL =      0    1-x, 2-y, 3-z, 4-all directions 
   EPSILON=  1.0000000 bulk dielectric constant

 Exchange correlation treatment:
   GGA     =    PE    GGA type
   LEXCH   =     8    internal setting for exchange type
   VOSKOWN=      0    Vosko Wilk Nusair interpolation
   LHFCALC =     F    Hartree Fock is set to
   LHFONE  =     F    Hartree Fock one center treatment
   AEXX    =    0.0000 exact exchange contribution

 Linear response parameters
   LEPSILON=     F    determine dielectric tensor
   LRPA    =     F    only Hartree local field effects (RPA)
   LNABLA  =     F    use nabla operator in PAW spheres
   LVEL    =     F    velocity operator in full k-point grid
   LINTERFAST=   F  fast interpolation
   KINTER  =     0    interpolate to denser k-point grid
   CSHIFT  =0.1000    complex shift for real part using Kramers Kronig
   OMEGAMAX=  -1.0    maximum frequency
   DEG_THRESHOLD= 0.2000000E-02 threshold for treating states as degnerate
   RTIME   =   -0.100 relaxation time in fs
  (WPLASMAI=    0.000 imaginary part of plasma frequency in eV, 0.658/RTIME)
   DFIELD  = 0.0000000 0.0000000 0.0000000 field for delta impulse in time
 
 Orbital magnetization related:
   ORBITALMAG=     F  switch on orbital magnetization
   LCHIMAG   =     F  perturbation theory with respect to B field
   DQ        =  0.001000  dq finite difference perturbation B field
   LLRAUG    =     F  two centre corrections for induced B field



--------------------------------------------------------------------------------------------------------


 Static calculation
 charge density and potential will be updated during run
 non-spin polarized calculation
 Conjugate gradient for all bands (Freysoldt, et al. PRB 79, 241103 (2009))
 perform sub-space diagonalisation
    before iterative eigenvector-optimisation
 modified Broyden-mixing scheme, WC =      100.0
 initial mixing is a Kerker type mixing with AMIX =  0.4000 and BMIX =      1.0000
 Hartree-type preconditioning will be used
 using additional bands           52
 reciprocal scheme for non local part
 use partial core corrections
 no Harris-corrections to forces 
 use gradient corrections 
 use of overlap-Matrix (Vanderbilt PP)
 Methfessel and Paxton  Order N= 1 SIGMA  =   0.05


--------------------------------------------------------------------------------------------------------


  energy-cutoff  :      450.00
  volume of cell :       44.68
      direct lattice vectors                 reciprocal lattice vectors
     0.000000000  2.816500000  2.816500000    -0.177525297  0.177525297  0.177525297
     2.816500000  0.000000000  2.816500000     0.177525297 -0.177525297  0.177525297
     2.816500000  2.816500000  0.000000000     0.177525297  0.177525297 -0.177525297

  length of vectors
     3.983132498  3.983132498  3.983132498     0.307482835  0.307482835  0.307482835


 
 k-points in units of 2pi/SCALE and weight: KPOINTS created by Atomic Simulation Env
   0.00000000  0.00000000  0.00000000       0.037
  -0.05917510  0.05917510  0.05917510       0.296
   0.00000000  0.00000000  0.11835020       0.222
   0.11835020 -0.11835020  0.00000000       0.444
 
 k-points in reciprocal lattice and weights: KPOINTS created by Atomic Simulation Env
   0.00000000  0.00000000  0.00000000       0.037
   0.33333333  0.00000000  0.00000000       0.296
   0.33333333  0.33333333  0.00000000       0.222
  -0.33333333  0.33333333  0.00000000       0.444
 
 position of ions in fractional coordinates (direct lattice) 
   0.00000000  0.00000000  0.00000000
   0.25000000  0.25000000  0.25000000
 
 position of ions in cartesian coordinates  (Angst):
   0.00000000  0.00000000  0.00000000
   1.40825000  1.40825000  1.40825000
 


--------------------------------------------------------------------------------------------------------


 k-point  1 :   0.0000 0.0000 0.0000  plane waves:     941
 k-point  2 :   0.3333 0.0000 0.0000  plane waves:     968
 k-point  3 :   0.3333 0.3333 0.0000  plane waves:     962
 k-point  4 :  -0.3333 0.3333 0.0000  plane waves:     981

 maximum and minimum number of plane-waves per node :       981      941

 maximum number of plane-waves:       981
 maximum index in each direction: 
   IXMAX=    7   IYMAX=    6   IZMAX=    6
   IXMIN=   -7   IYMIN=   -7   IZMIN=   -6


 serial   3D FFT for wavefunctions
 parallel 3D FFT for charge:
    minimum data exchange during FFTs selected (reduces bandwidth)


 total amount of memory used by VASP MPI-rank0    31569. kBytes
=======================================================================

   base      :      30000. kBytes
   nonl-proj :        451. kBytes
   fftplans  :        272. kBytes
   grid      :        626. kBytes
   one-center:         16. kBytes
   wavefun   :        204. kBytes
 
     INWAV:  cpu time    0.0000: real time    0.0000
 Broyden mixing: mesh for mixing (old mesh)
   NGX = 13   NGY = 13   NGZ = 13
  (NGX  = 48   NGY  = 48   NGZ  = 48)
  gives a total of   2197 points

 initial charge density was supplied:
 charge density of overlapping atoms calculated
 number of electron       8.0000000 magnetization 
 keeping initial charge density in first step


--------------------------------------------------------------------------------------------------------


 Maximum index for augmentation-charges          721 (set IRDMAX)


--------------------------------------------------------------------------------------------------------


 First call to EWALD:  gamma=   0.499
 Maximum number of real-space cells 3x 3x 3
 Maximum number of reciprocal cells 3x 3x 3

    FEWALD:  cpu time    0.0017: real time    0.0017


--------------------------------------- Iteration      1(   1)  ---------------------------------------


    POTLOK:  cpu time    0.0049: real time    0.0050
    SETDIJ:  cpu time    0.0034: real time    0.0123
    TRIAL :  cpu time    0.2763: real time    0.5494
    CORREC:  cpu time    0.0004: real time    0.0004
    --------------------------------------------
      LOOP:  cpu time    0.2853: real time    0.5699

 eigenvalue-minimisations  :   672
 total energy-change (2. order) :-0.1362524E+01  (-0.4948293E+03)
 number of electron       8.0000000 magnetization 
 augmentation part        8.0000000 magnetization 

 Free energy of the ion-electron system (eV)
  ---------------------------------------------------
  alpha Z        PSCENC =        17.10940282
  Ewald energy   TEWEN  =      -220.32663596
  -Hartree energ DENC   =       -12.42928696
  -exchange      EXHF   =         0.00000000
  -V(xc)+E(xc)   XCENC  =       -14.98288157
  PAW double counting   =       176.29039040     -147.31525009
  entropy T*S    EENTRO =        -0.00119833
  eigenvalues    EBANDS =        -9.69851484
  atomic energy  EATOM  =       209.99145059
  ---------------------------------------------------
  free energy    TOTEN  =        -1.36252396 eV

  energy without entropy =       -1.36132562  energy(sigma->0) =       -1.36212451


--------------------------------------------------------------------------------------------------------




--------------------------------------- Iteration      1(   2)  ---------------------------------------


    TRIAL :  cpu time    0.5071: real time    1.0138
    CORREC:  cpu time    0.0003: real time    0.0003
    --------------------------------------------
      LOOP:  cpu time    0.5078: real time    1.0145

 eigenvalue-minimisations  :   896
 total energy-change (2. order) :-0.6882983E+01  (-0.6860927E+01)
 number of electron       8.0000000 magnetization 
 augmentation part        8.0000000 magnetization 

 Free energy of the ion-electron system (eV)
  ---------------------------------------------------
  alpha Z        PSCENC =        17.10940282
  Ewald energy   TEWEN  =      -220.32663596
  -Hartree energ DENC   =       -12.42928696
  -exchange      EXHF   =         0.00000000
  -V(xc)+E(xc)   XCENC  =       -14.98288157
  PAW double counting   =       176.29039040     -147.31525009
  entropy T*S    EENTRO =         0.00034224
  eigenvalues    EBANDS =       -16.58303856
  atomic energy  EATOM  =       209.99145059
  ---------------------------------------------------
  free energy    TOTEN  =        -8.24550710 eV

  energy without entropy =       -8.24584934  energy(sigma->0) =       -8.24562118


--------------------------------------------------------------------------------------------------------




--------------------------------------- Iteration      1(   3)  ---------------------------------------


    TRIAL :  cpu time    0.3336: real time    0.6681
    CORREC:  cpu time    0.0003: real time    0.0003
    --------------------------------------------
      LOOP:  cpu time    0.3352: real time    0.6708

 eigenvalue-minimisations  :   728
 total energy-change (2. order) :-0.3220806E-01  (-0.3220492E-01)
 number of electron       8.0000000 magnetization 
 augmentation part        8.0000000 magnetization 

 Free energy of the ion-electron system (eV)
  ---------------------------------------------------
  alpha Z        PSCENC =        17.10940282
  Ewald energy   TEWEN  =      -220.32663596
  -Hartree energ DENC   =       -12.42928696
  -exchange      EXHF   =         0.00000000
  -V(xc)+E(xc)   XCENC  =       -14.98288157
  PAW double counting   =       176.29039040     -147.31525009
  entropy T*S    EENTRO =         0.00034005
  eigenvalues    EBANDS =       -16.61524443
  atomic energy  EATOM  =       209.99145059
  ---------------------------------------------------
  free energy    TOTEN  =        -8.27771516 eV

  energy without entropy =       -8.27805521  energy(sigma->0) =       -8.27782851


--------------------------------------------------------------------------------------------------------




--------------------------------------- Iteration      1(   4)  ---------------------------------------


    TRIAL :  cpu time    0.5076: real time    1.0123
    CORREC:  cpu time    0.0001: real time    0.0086
    --------------------------------------------
      LOOP:  cpu time    0.5078: real time    1.0210

 eigenvalue-minimisations  :   896
 total energy-change (2. order) :-0.2410889E-03  (-0.2410883E-03)
 number of electron       8.0000000 magnetization 
 augmentation part        8.0000000 magnetization 

 Free energy of the ion-electron system (eV)
  ---------------------------------------------------
  alpha Z        PSCENC =        17.10940282
  Ewald energy   TEWEN  =      -220.32663596
  -Hartree energ DENC   =       -12.42928696
  -exchange      EXHF   =         0.00000000
  -V(xc)+E(xc)   XCENC  =       -14.98288157
  PAW double counting   =       176.29039040     -147.31525009
  entropy T*S    EENTRO =         0.00034010
  eigenvalues    EBANDS =       -16.61548556
  atomic energy  EATOM  =       209.99145059
  ---------------------------------------------------
  free energy    TOTEN  =        -8.27795625 eV

  energy without entropy =       -8.27829634  energy(sigma->0) =       -8.27806961


--------------------------------------------------------------------------------------------------------




--------------------------------------- Iteration      1(   5)  ---------------------------------------


    TRIAL :  cpu time    0.3990: real time    0.7937
    CORREC:  cpu time    0.0003: real time    0.0003
    CHARGE:  cpu time    0.0078: real time    0.0171
    --------------------------------------------
      LOOP:  cpu time    0.4074: real time    0.8135

 eigenvalue-minimisations  :   784
 total energy-change (2. order) :-0.4989075E-06  (-0.4989852E-06)
 number of electron       7.9999998 magnetization 
 augmentation part       -1.2732426 magnetization 

 Free energy of the ion-electron system (eV)
  ---------------------------------------------------
  alpha Z        PSCENC =        17.10940282
  Ewald energy   TEWEN  =      -220.32663596
  -Hartree energ DENC   =       -12.42928696
  -exchange      EXHF   =         0.00000000
  -V(xc)+E(xc)   XCENC  =       -14.98288157
  PAW double counting   =       176.29039040     -147.31525009
  entropy T*S    EENTRO =         0.00034010
  eigenvalues    EBANDS =       -16.61548606
  atomic energy  EATOM  =       209.99145059
  ---------------------------------------------------
  free energy    TOTEN  =        -8.27795675 eV

  energy without entropy =       -8.27829684  energy(sigma->0) =       -8.27807011


--------------------------------------------------------------------------------------------------------




--------------------------------------- Iteration      1(   6)  ---------------------------------------


    POTLOK:  cpu time    0.0039: real time    0.0054
    SETDIJ:  cpu time    0.0032: real time    0.0032
    TRIAL :  cpu time    0.0486: real time    0.1018
    CORREC:  cpu time    0.0003: real time    0.0003
    CHARGE:  cpu time    0.0063: real time    0.0144
    --------------------------------------------
      LOOP:  cpu time    0.0625: real time    0.1277

 eigenvalue-minimisations  :     0
 total energy-change (2. order) : 0.1718179E+00  (-0.1746189E-01)
 number of electron       7.9999998 magnetization 
 augmentation part       -1.2666377 magnetization 

 Free energy of the ion-electron system (eV)
  ---------------------------------------------------
  alpha Z        PSCENC =        17.10940282
  Ewald energy   TEWEN  =      -220.32663596
  -Hartree energ DENC   =       -17.15467095
  -exchange      EXHF   =         0.00000000
  -V(xc)+E(xc)   XCENC  =       -14.23313361
  PAW double counting   =       478.98666536     -450.43343180
  entropy T*S    EENTRO =         0.00013650
  eigenvalues    EBANDS =       -12.04612540
  atomic energy  EATOM  =       209.99145059
  ---------------------------------------------------
  free energy    TOTEN  =        -8.10613886 eV

  energy without entropy =       -8.10627537  energy(sigma->0) =       -8.10618436


--------------------------------------------------------------------------------------------------------




--------------------------------------- Iteration      1(   7)  ---------------------------------------


    POTLOK:  cpu time    0.0037: real time    0.0037
    SETDIJ:  cpu time    0.0028: real time    0.0028
    TRIAL :  cpu time    0.0406: real time    0.0850
    CORREC:  cpu time    0.0003: real time    0.0003
    CHARGE:  cpu time    0.0059: real time    0.0149
    --------------------------------------------
      LOOP:  cpu time    0.0536: real time    0.1069

 eigenvalue-minimisations  :     0
 total energy-change (2. order) :-0.1552833E-01  (-0.1502548E-01)
 number of electron       7.9999998 magnetization 
 augmentation part       -1.2593504 magnetization 

 Free energy of the ion-electron system (eV)
  ---------------------------------------------------
  alpha Z        PSCENC =        17.10940282
  Ewald energy   TEWEN  =      -220.32663596
  -Hartree energ DENC   =       -16.96225663
  -exchange      EXHF   =         0.00000000
  -V(xc)+E(xc)   XCENC  =       -14.23595570
  PAW double counting   =       481.94576604     -453.38438479
  entropy T*S    EENTRO =         0.00032628
  eigenvalues    EBANDS =       -12.25919005
  atomic energy  EATOM  =       209.99145059
  ---------------------------------------------------
  free energy    TOTEN  =        -8.12166719 eV

  energy without entropy =       -8.12199346  energy(sigma->0) =       -8.12177595


--------------------------------------------------------------------------------------------------------




--------------------------------------- Iteration      1(   8)  ---------------------------------------


    POTLOK:  cpu time    0.0036: real time    0.0036
    SETDIJ:  cpu time    0.0020: real time    0.0100
    TRIAL :  cpu time    0.0436: real time    0.0870
    CORREC:  cpu time    0.0003: real time    0.0003
    CHARGE:  cpu time    0.0064: real time    0.0081
    --------------------------------------------
      LOOP:  cpu time    0.0561: real time    0.1092

 eigenvalue-minimisations  :     0
 total energy-change (2. order) :-0.1218061E-01  (-0.8155390E-02)
 number of electron       7.9999998 magnetization 
 augmentation part       -1.2535668 magnetization 

 Free energy of the ion-electron system (eV)
  ---------------------------------------------------
  alpha Z        PSCENC =        17.10940282
  Ewald energy   TEWEN  =      -220.32663596
  -Hartree energ DENC   =       -16.74080152
  -exchange      EXHF   =         0.00000000
  -V(xc)+E(xc)   XCENC  =       -14.23986134
  PAW double counting   =       484.92039091     -456.34998934
  entropy T*S    EENTRO =         0.00032423
  eigenvalues    EBANDS =       -12.49813022
  atomic energy  EATOM  =       209.99145059
  ---------------------------------------------------
  free energy    TOTEN  =        -8.13384780 eV

  energy without entropy =       -8.13417203  energy(sigma->0) =       -8.13395587


--------------------------------------------------------------------------------------------------------




--------------------------------------- Iteration      1(   9)  ---------------------------------------


    POTLOK:  cpu time    0.0037: real time    0.0037
    SETDIJ:  cpu time    0.0028: real time    0.0115
    TRIAL :  cpu time    0.0405: real time    0.0759
    CORREC:  cpu time    0.0003: real time    0.0003
    CHARGE:  cpu time    0.0061: real time    0.0158
    --------------------------------------------
      LOOP:  cpu time    0.0538: real time    0.1098

 eigenvalue-minimisations  :     0
 total energy-change (2. order) :-0.6503080E-02  (-0.3576233E-02)
 number of electron       7.9999998 magnetization 
 augmentation part       -1.2497714 magnetization 

 Free energy of the ion-electron system (eV)
  ---------------------------------------------------
  alpha Z        PSCENC =        17.10940282
  Ewald energy   TEWEN  =      -220.32663596
  -Hartree energ DENC   =       -16.55748303
  -exchange      EXHF   =         0.00000000
  -V(xc)+E(xc)   XCENC  =       -14.24375243
  PAW double counting   =       486.84115118     -458.26375586
  entropy T*S    EENTRO =         0.00011149
  eigenvalues    EBANDS =       -12.69105241
  atomic energy  EATOM  =       209.99145059
  ---------------------------------------------------
  free energy    TOTEN  =        -8.14035088 eV

  energy without entropy =       -8.14046236  energy(sigma->0) =       -8.14038804


--------------------------------------------------------------------------------------------------------




--------------------------------------- Iteration      1(  10)  ---------------------------------------


    POTLOK:  cpu time    0.0037: real time    0.0037
    SETDIJ:  cpu time    0.0027: real time    0.0111
    TRIAL :  cpu time    0.0408: real time    0.0768
    CORREC:  cpu time    0.0003: real time    0.0003
    CHARGE:  cpu time    0.0062: real time    0.0159
    --------------------------------------------
      LOOP:  cpu time    0.0538: real time    0.1080

 eigenvalue-minimisations  :     0
 total energy-change (2. order) :-0.3003443E-02  (-0.1385728E-02)
 number of electron       7.9999998 magnetization 
 augmentation part       -1.2476193 magnetization 

 Free energy of the ion-electron system (eV)
  ---------------------------------------------------
  alpha Z        PSCENC =        17.10940282
  Ewald energy   TEWEN  =      -220.32663596
  -Hartree energ DENC   =       -16.42835787
  -exchange      EXHF   =         0.00000000
  -V(xc)+E(xc)   XCENC  =       -14.24719882
  PAW double counting   =       487.62461297     -459.04266563
  entropy T*S    EENTRO =         0.00011067
  eigenvalues    EBANDS =       -12.82407390
  atomic energy  EATOM  =       209.99145059
  ---------------------------------------------------
  free energy    TOTEN  =        -8.14335432 eV

  energy without entropy =       -8.14346499  energy(sigma->0) =       -8.14339121


--------------------------------------------------------------------------------------------------------




--------------------------------------- Iteration      1(  11)  ---------------------------------------


    POTLOK:  cpu time    0.0037: real time    0.0037
    SETDIJ:  cpu time    0.0027: real time    0.0111
    TRIAL :  cpu time    0.0408: real time    0.0772
    CORREC:  cpu time    0.0003: real time    0.0003
    CHARGE:  cpu time    0.0061: real time    0.0155
    --------------------------------------------
      LOOP:  cpu time    0.0538: real time    0.1080

 eigenvalue-minimisations  :     0
 total energy-change (2. order) :-0.1057409E-02  (-0.4790556E-03)
 number of electron       7.9999998 magnetization 
 augmentation part       -1.2465376 magnetization 

 Free energy of the ion-electron system (eV)
  ---------------------------------------------------
  alpha Z        PSCENC =        17.10940282
  Ewald energy   TEWEN  =      -220.32663596
  -Hartree energ DENC   =       -16.34726241
  -exchange      EXHF   =         0.00000000
  -V(xc)+E(xc)   XCENC  =       -14.24992257
  PAW double counting   =       487.67725286     -459.09272298
  entropy T*S    EENTRO =         0.00011046
  eigenvalues    EBANDS =       -12.90608474
  atomic energy  EATOM  =       209.99145059
  ---------------------------------------------------
  free energy    TOTEN  =        -8.14441173 eV

  energy without entropy =       -8.14452219  energy(sigma->0) =       -8.14444855


--------------------------------------------------------------------------------------------------------




--------------------------------------- Iteration      1(  12)  ---------------------------------------


    POTLOK:  cpu time    0.0037: real time    0.0037
    SETDIJ:  cpu time    0.0027: real time    0.0111
    TRIAL :  cpu time    0.0403: real time    0.0753
    CORREC:  cpu time    0.0001: real time    0.0087
    CHARGE:  cpu time    0.0062: real time    0.0062
    --------------------------------------------
      LOOP:  cpu time    0.0533: real time    0.1052

 eigenvalue-minimisations  :     0
 total energy-change (2. order) :-0.3527314E-03  (-0.1405919E-03)
 number of electron       7.9999998 magnetization 
 augmentation part       -1.2460552 magnetization 

 Free energy of the ion-electron system (eV)
  ---------------------------------------------------
  alpha Z        PSCENC =        17.10940282
  Ewald energy   TEWEN  =      -220.32663596
  -Hartree energ DENC   =       -16.30123972
  -exchange      EXHF   =         0.00000000
  -V(xc)+E(xc)   XCENC  =       -14.25177930
  PAW double counting   =       487.45659827     -458.87076167
  entropy T*S    EENTRO =         0.00011055
  eigenvalues    EBANDS =       -12.95190995
  atomic energy  EATOM  =       209.99145059
  ---------------------------------------------------
  free energy    TOTEN  =        -8.14476446 eV

  energy without entropy =       -8.14487501  energy(sigma->0) =       -8.14480131


--------------------------------------------------------------------------------------------------------




--------------------------------------- Iteration      1(  13)  ---------------------------------------


    POTLOK:  cpu time    0.0035: real time    0.0137
    SETDIJ:  cpu time    0.0027: real time    0.0027
    TRIAL :  cpu time    0.0406: real time    0.0759
    CORREC:  cpu time    0.0001: real time    0.0083
    EDDIAG:  cpu time    0.0272: real time    0.0544
    CHARGE:  cpu time    0.0059: real time    0.0059
    --------------------------------------------
      LOOP:  cpu time    0.0804: real time    0.1612

 eigenvalue-minimisations  :     0
 total energy-change (2. order) :-0.9796785E-04  (-0.3476029E-04)
 number of electron       7.9999998 magnetization 
 augmentation part       -1.2458697 magnetization 

 Free energy of the ion-electron system (eV)
  ---------------------------------------------------
  alpha Z        PSCENC =        17.10940282
  Ewald energy   TEWEN  =      -220.32663596
  -Hartree energ DENC   =       -16.27788330
  -exchange      EXHF   =         0.00000000
  -V(xc)+E(xc)   XCENC  =       -14.25283245
  PAW double counting   =       487.24712833     -458.66068516
  entropy T*S    EENTRO =         0.00011078
  eigenvalues    EBANDS =       -12.97491785
  atomic energy  EATOM  =       209.99145059
  ---------------------------------------------------
  free energy    TOTEN  =        -8.14486243 eV

  energy without entropy =       -8.14497321  energy(sigma->0) =       -8.14489935


--------------------------------------------------------------------------------------------------------


  average scaling for gradient   1.5386


 average (electrostatic) potential at core
  the test charge radii are     1.1631
  (the norm of the test charge is              1.0000)
       1 -32.7349       2 -32.7349
 
 
 
 E-fermi :   4.1429     XC(G=0):  -9.1010     alpha+bet : -9.2781


 k-point     1 :       0.0000    0.0000    0.0000
  band No.  band energies     occupation 
      1      -8.8970      2.00000
      2       3.9962      2.00015
      3       3.9962      2.00015
      4       3.9962      2.00015
      5       4.1875     -0.00046
      6       6.4862      0.00000
      7       6.4862      0.00000
      8       6.4862      0.00000
      9      10.4765      0.00000
     10      13.2283      0.00000
     11      13.2283      0.00000
     12      14.6914      0.00000
     13      14.6914      0.00000
     14      14.6914      0.00000
     15      17.9220      0.00000
     16      28.3472      0.00000
     17      28.3472      0.00000
     18      28.3472      0.00000
     19      29.1773      0.00000
     20      29.1773      0.00000
     21      29.1773      0.00000
     22      29.5215      0.00000
     23      29.5215      0.00000
     24      30.2052      0.00000
     25      30.2052      0.00000
     26      30.2052      0.00000
     27      38.8001      0.00000
     28      39.1874      0.00000
     29      39.1874      0.00000
     30      39.1874      0.00000
     31      42.0089      0.00000
     32      42.0089      0.00000
     33      42.5477      0.00000
     34      42.5477      0.00000
     35      43.5484      0.00000
     36      43.7482      0.00000
     37      43.7482      0.00000
     38      43.7483      0.00000
     39      44.1472      0.00000
     40      44.1472      0.00000
     41      44.1472      0.00000
     42      44.9237      0.00000
     43      44.9237      0.00000
     44      44.9237      0.00000
     45      45.4697      0.00000
     46      45.4697      0.00000
     47      45.4698      0.00000
     48      46.5453      0.00000
     49      46.5453      0.00000
     50      46.5458      0.00000
     51      50.0843      0.00000
     52      51.9857      0.00000
     53      51.9859      0.00000
     54      52.1622      0.00000
     55      52.2829      0.00000
     56      52.2841      0.00000

 k-point     2 :       0.3333    0.0000    0.0000
  band No.  band energies     occupation 
      1      -7.6130      2.00000
      2      -2.1496      2.00000
      3       2.7919      2.00000
      4       2.7919      2.00000
      5       4.4362     -0.00000
      6       7.7148      0.00000
      7       7.7148      0.00000
      8      11.0848      0.00000
      9      11.8813      0.00000
     10      12.8193      0.00000
     11      12.8193      0.00000
     12      16.5297      0.00000
     13      19.4149      0.00000
     14      19.4149      0.00000
     15      20.6349      0.00000
     16      20.9989      0.00000
     17      20.9989      0.00000
     18      24.3466      0.00000
     19      29.0871      0.00000
     20      29.4864      0.00000
     21      29.4864      0.00000
     22      30.3370      0.00000
     23      30.3370      0.00000
     24      31.2249      0.00000
     25      31.4318      0.00000
     26      31.4318      0.00000
     27      33.3125      0.00000
     28      36.0338      0.00000
     29      36.0338      0.00000
     30      36.6196      0.00000
     31      36.6196      0.00000
     32      36.8206      0.00000
     33      38.5431      0.00000
     34      39.2697      0.00000
     35      41.8990      0.00000
     36      41.8990      0.00000
     37      42.6201      0.00000
     38      42.6201      0.00000
     39      43.1949      0.00000
     40      44.7927      0.00000
     41      44.7927      0.00000
     42      44.9109      0.00000
     43      46.3895      0.00000
     44      50.0522      0.00000
     45      50.0523      0.00000
     46      51.2880      0.00000
     47      51.2883      0.00000
     48      52.6708      0.00000
     49      53.6387      0.00000
     50      53.6411      0.00000
     51      54.2220      0.00000
     52      56.5716      0.00000
     53      57.1006      0.00000
     54      57.1788      0.00000
     55      58.3314      0.00000
     56      58.3850      0.00000

 k-point     3 :       0.3333    0.3333    0.0000
  band No.  band energies     occupation 
      1      -7.0958      2.00000
      2      -2.2215      2.00000
      3       1.3139      2.00000
      4       1.3139      2.00000
      5       4.5972     -0.00000
      6       5.9186      0.00000
      7      11.3260      0.00000
      8      11.3260      0.00000
      9      12.5387      0.00000
     10      15.0713      0.00000
     11      15.9655      0.00000
     12      18.3659      0.00000
     13      18.3659      0.00000
     14      18.9225      0.00000
     15      19.3851      0.00000
     16      19.3851      0.00000
     17      20.6353      0.00000
     18      21.9769      0.00000
     19      27.5728      0.00000
     20      28.3756      0.00000
     21      28.6897      0.00000
     22      28.6897      0.00000
     23      29.6136      0.00000
     24      30.4689      0.00000
     25      31.3295      0.00000
     26      31.3295      0.00000
     27      32.7215      0.00000
     28      36.4974      0.00000
     29      37.4363      0.00000
     30      37.4363      0.00000
     31      38.7767      0.00000
     32      39.3531      0.00000
     33      40.5868      0.00000
     34      40.5868      0.00000
     35      40.8274      0.00000
     36      40.9411      0.00000
     37      40.9411      0.00000
     38      43.0243      0.00000
     39      43.6884      0.00000
     40      43.7277      0.00000
     41      44.5232      0.00000
     42      44.5232      0.00000
     43      46.2701      0.00000
     44      49.1197      0.00000
     45      50.4785      0.00000
     46      50.4785      0.00000
     47      51.5795      0.00000
     48      52.4295      0.00000
     49      53.2055      0.00000
     50      53.2061      0.00000
     51      53.7061      0.00000
     52      54.2827      0.00000
     53      57.8563      0.00000
     54      58.5124      0.00000
     55      58.5636      0.00000
     56      59.8890      0.00000

 k-point     4 :      -0.3333    0.3333    0.0000
  band No.  band energies     occupation 
      1      -5.8713      2.00000
      2      -3.8941      2.00000
      3      -0.5745      2.00000
      4       1.6160      2.00000
      5       5.3909     -0.00000
      6       9.7664      0.00000
      7      10.4117      0.00000
      8      10.4311      0.00000
      9      11.1883      0.00000
     10      12.7680      0.00000
     11      17.6262      0.00000
     12      17.8357      0.00000
     13      19.5550      0.00000
     14      20.7747      0.00000
     15      21.1270      0.00000
     16      22.2109      0.00000
     17      22.3511      0.00000
     18      24.2663      0.00000
     19      25.5124      0.00000
     20      25.8863      0.00000
     21      26.0062      0.00000
     22      26.3214      0.00000
     23      28.9621      0.00000
     24      29.7762      0.00000
     25      29.8705      0.00000
     26      31.8616      0.00000
     27      31.9295      0.00000
     28      32.2853      0.00000
     29      36.8931      0.00000
     30      37.3523      0.00000
     31      37.4048      0.00000
     32      37.7385      0.00000
     33      38.0160      0.00000
     34      38.5761      0.00000
     35      41.5440      0.00000
     36      41.8692      0.00000
     37      43.0862      0.00000
     38      45.1432      0.00000
     39      45.6033      0.00000
     40      47.4279      0.00000
     41      47.8734      0.00000
     42      48.6895      0.00000
     43      49.1667      0.00000
     44      50.5203      0.00000
     45      50.5662      0.00000
     46      51.1563      0.00000
     47      51.3500      0.00000
     48      52.6415      0.00000
     49      53.2241      0.00000
     50      53.7813      0.00000
     51      54.9064      0.00000
     52      55.2721      0.00000
     53      56.1075      0.00000
     54      56.1454      0.00000
     55      57.9060      0.00000
     56      58.4754      0.00000


--------------------------------------------------------------------------------------------------------


 soft charge-density along one line, spin component           1
         0         1         2         3         4         5         6         7         8         9
 total charge-density along one line
 
 pseudopotential strength for first ion, spin component:           1
 14.443   0.000  18.019   0.000   0.000   0.000   0.000   0.000   0.000   0.000   0.000   0.000   0.000   0.000   0.000   0.000
 18.019   0.000  22.494   0.000   0.000   0.000   0.000   0.000   0.000   0.000   0.000   0.000   0.000   0.000   0.000   0.000
  0.000   0.000   0.000   0.000   3.222   0.000   0.000   0.000   0.000   0.000   5.488   0.000   0.000   0.000   0.000   0.000
  0.000   0.000   0.000   0.000   0.000   0.000   3.222   0.000   0.000   0.000   0.000   0.000   5.488   0.000   0.000   0.000
  0.000   0.000   0.000   0.000   0.000   0.000   0.000   0.000   3.222   0.000   0.000   0.000   0.000   0.000   5.488   0.000
  0.000   0.000   0.000   0.000   5.488   0.000   0.000   0.000   0.000   0.000   9.406   0.000   0.000   0.000   0.000   0.000
  0.000   0.000   0.000   0.000   0.000   0.000   5.488   0.000   0.000   0.000   0.000   0.000   9.406   0.000   0.000   0.000
  0.000   0.000   0.000   0.000   0.000   0.000   0.000   0.000   5.488   0.000   0.000   0.000   0.000   0.000   9.406   0.000
  0.000   0.000   0.000   0.000   0.000   0.000   0.002   0.000   0.000   0.000   0.000   0.000   0.004   0.000   0.000   0.000
  0.000   0.000   0.000   0.000   0.000   0.000   0.000   0.000   0.002   0.000   0.000   0.000   0.000   0.000   0.004   0.000
 -0.000   0.000  -0.000   0.000   0.000   0.000  -0.000   0.000   0.000   0.000   0.000   0.000  -0.000   0.000   0.000   0.000
  0.000   0.000   0.000   0.000   0.002   0.000   0.000   0.000   0.000   0.000   0.004   0.000   0.000   0.000   0.000   0.000
 -0.000   0.000  -0.000   0.000   0.000   0.000   0.000   0.000  -0.000   0.000   0.000   0.000   0.000   0.000  -0.000   0.000
 total augmentation occupancy for first ion, spin component:           1
  3.784  -1.176   0.000   0.000  -0.000  -0.000  -0.000  -0.000   0.000  -0.000   0.000  -0.000   0.000
 -1.176   0.453   0.000   0.000   0.000  -0.000  -0.000   0.000   0.000   0.000   0.000  -0.000   0.000
  0.000   0.000   2.164   0.000  -0.000  -0.361   0.000   0.000   0.000  -0.000   0.000   0.207   0.000
  0.000  -0.000   0.000   2.164  -0.000   0.000  -0.361  -0.000   0.207  -0.000  -0.000  -0.000   0.000
 -0.000  -0.000   0.000  -0.000   2.164  -0.000   0.000  -0.361   0.000   0.207   0.000  -0.000   0.000
  0.000  -0.000  -0.361   0.000  -0.000   0.069   0.000   0.000   0.000   0.000  -0.000  -0.033   0.000
  0.000  -0.000  -0.000  -0.361   0.000   0.000   0.069   0.000  -0.033   0.000   0.000  -0.000   0.000
  0.000   0.000   0.000   0.000  -0.361   0.000  -0.000   0.069  -0.000  -0.033   0.000  -0.000   0.000
  0.000  -0.000   0.000   0.207  -0.000   0.000  -0.033  -0.000   0.030   0.000  -0.000   0.000  -0.000
 -0.000   0.000   0.000  -0.000   0.207   0.000   0.000  -0.033   0.000   0.030   0.000   0.000   0.000
  0.000   0.000   0.000  -0.000  -0.000   0.000   0.000   0.000  -0.000   0.000   0.007   0.000   0.000
  0.000  -0.000   0.207   0.000  -0.000  -0.033   0.000   0.000  -0.000  -0.000   0.000   0.030   0.000
  0.000   0.000  -0.000   0.000   0.000   0.000  -0.000  -0.000   0.000   0.000   0.000  -0.000   0.007


------------------------ aborting loop because EDIFF is reached ----------------------------------------


    FORLOC:  cpu time    0.0002: real time    0.0032
    FORNL :  cpu time    0.0041: real time    0.0135
    STRESS:  cpu time    0.0232: real time    0.0447
    FORCOR:  cpu time    0.0033: real time    0.0132
    OFIELD:  cpu time    0.0001: real time    0.0001

  FORCE on cell =-STRESS in cart. coord.  units (eV):
  Direction    XX          YY          ZZ          XY          YZ          ZX
  --------------------------------------------------------------------------------------
  Alpha Z    17.10940    17.10940    17.10940
  Ewald     -73.44225   -73.44225   -73.44225     0.00000     0.00000     0.00000
  Hartree     5.42261     5.42261     5.42261     0.00000     0.00000     0.00000
  E(xc)     -28.03726   -28.03726   -28.03726     0.00000     0.00000     0.00000
  Local     -24.09608   -24.09608   -24.09608     0.00000     0.00000     0.00000
  n-local    41.45226    41.45225    38.27751     1.49223    -0.68235     0.68235
  augment     2.31012     2.31012     2.31012    -0.00000    -0.00000    -0.00000
  Kinetic    64.51101    64.51101    57.46932     5.42856    -2.19615     2.19617
  Fock        0.00000     0.00000     0.00000     0.00000     0.00000     0.00000
  -------------------------------------------------------------------------------------
  Total       1.82433     1.82433     1.82433     0.00000    -0.00000     0.00000
  in kB      65.41172    65.41172    65.41172     0.00000    -0.00000     0.00000
  external pressure =       65.41 kB  Pullay stress =        0.00 kB


 VOLUME and BASIS-vectors are now :
 -----------------------------------------------------------------------------
  energy-cutoff  :      450.00
  volume of cell :       44.68
      direct lattice vectors                 reciprocal lattice vectors
     0.000000000  2.816500000  2.816500000    -0.177525297  0.177525297  0.177525297
     2.816500000  0.000000000  2.816500000     0.177525297 -0.177525297  0.177525297
     2.816500000  2.816500000  0.000000000     0.177525297  0.177525297 -0.177525297

  length of vectors
     3.983132498  3.983132498  3.983132498     0.307482835  0.307482835  0.307482835


 FORCES acting on ions:
    Electron-Ion                     Ewald-Force                    Non-Local-Force
 -----------------------------------------------------------------------------------------------
   -.147E-06 -.147E-06 -.147E-06   0.204E-14 0.421E-14 0.352E-14   0.694E-17 0.486E-16 0.221E-16
   0.147E-06 0.147E-06 0.147E-06   -.214E-14 -.407E-14 -.341E-14   -.139E-16 -.347E-16 0.867E-18
 -----------------------------------------------------------------------------------------------
   -.339E-13 0.248E-14 0.671E-15   -.101E-15 0.144E-15 0.110E-15   -.694E-17 0.139E-16 0.230E-16
 
 
 POSITION                                       TOTAL-FORCE (eV/Angst)
 -----------------------------------------------------------------------------------
      0.00000      0.00000      0.00000         0.000000      0.000000      0.000000
      1.40825      1.40825      1.40825        -0.000000     -0.000000     -0.000000
 -----------------------------------------------------------------------------------
    total drift:                               -0.000000      0.000000      0.000000


--------------------------------------------------------------------------------------------------------



  FREE ENERGIE OF THE ION-ELECTRON SYSTEM (eV)
  ---------------------------------------------------
  free  energy   TOTEN  =        -8.14486243 eV

  energy  without entropy=       -8.14497321  energy(sigma->0) =       -8.14489935
 


--------------------------------------------------------------------------------------------------------


    POTLOK:  cpu time    0.0068: real time    0.0068


--------------------------------------------------------------------------------------------------------


 writing wavefunctions
     LOOP+:  cpu time    2.7471: real time    5.5709
    4ORBIT:  cpu time    0.0000: real time    0.0000

 total amount of memory used by VASP MPI-rank0    31569. kBytes
=======================================================================

   base      :      30000. kBytes
   nonl-proj :        451. kBytes
   fftplans  :        272. kBytes
   grid      :        626. kBytes
   one-center:         16. kBytes
   wavefun   :        204. kBytes
 
  
  
 General timing and accounting informations for this job:
 ========================================================
  
                  Total CPU time used (sec):        3.269
                            User time (sec):        3.036
                          System time (sec):        0.233
                         Elapsed time (sec):        6.713
  
                   Maximum memory used (kb):       53732.
                   Average memory used (kb):           0.
  
                          Minor page faults:        16987
                          Major page faults:            0
                 Voluntary context switches:         1122
