<?xml version="1.0" encoding="ISO-8859-1"?>
<modeling>
 <generator>
  <i name="program" type="string">vasp </i>
  <i name="version" type="string">5.4.4.18Apr17-6-g9f103f2a35  </i>
  <i name="subversion" type="string">(build Nov 08 2017 12:56:59) complex            parallel </i>
  <i name="platform" type="string">LinuxIFC </i>
  <i name="date" type="string">2020 03 24 </i>
  <i name="time" type="string">20:45:28 </i>
 </generator>
 <incar>
  <i type="int" name="ISTART">     0</i>
  <i type="string" name="PREC">n</i>
  <i type="string" name="ALGO"> D</i>
  <i type="int" name="ICHARG">     2</i>
  <i name="ENCUT">    450.00000000</i>
  <i name="SIGMA">      0.05000000</i>
  <v type="int" name="KPOINT_BSE">    -1     0     0     0</v>
  <i type="string" name="GGA"> PE</i>
 </incar>
 <structure name="primitive_cell" >
  <crystal>
   <varray name="basis" >
    <v>       0.00000000       2.81650000       2.81650000 </v>
    <v>       2.81650000       0.00000000       2.81650000 </v>
    <v>       2.81650000       2.81650000       0.00000000 </v>
   </varray>
   <i name="volume">     44.68474278 </i>
   <varray name="rec_basis" >
    <v>      -0.17752530       0.17752530       0.17752530 </v>
    <v>       0.17752530      -0.17752530       0.17752530 </v>
    <v>       0.17752530       0.17752530      -0.17752530 </v>
   </varray>
  </crystal>
  <varray name="positions" >
   <v>       0.00000000       0.00000000       0.00000000 </v>
   <v>       0.25000000       0.25000000       0.25000000 </v>
  </varray>
 </structure>
 <varray name="primitive_index" >
  <v type="int" >        1 </v>
  <v type="int" >        2 </v>
 </varray>
 <kpoints>
  <generation param="Gamma">
   <v type="int" name="divisions">       3        3        3 </v>
   <v name="usershift">      0.00000000       0.00000000       0.00000000 </v>
   <v name="genvec1">      0.33333333       0.00000000       0.00000000 </v>
   <v name="genvec2">      0.00000000       0.33333333       0.00000000 </v>
   <v name="genvec3">      0.00000000       0.00000000       0.33333333 </v>
   <v name="shift">      0.00000000       0.00000000       0.00000000 </v>
  </generation>
  <varray name="kpointlist" >
   <v>       0.00000000       0.00000000       0.00000000 </v>
   <v>       0.33333333       0.00000000       0.00000000 </v>
   <v>       0.33333333       0.33333333       0.00000000 </v>
   <v>      -0.33333333       0.33333333       0.00000000 </v>
  </varray>
  <varray name="weights" >
   <v>       0.03703704 </v>
   <v>       0.29629630 </v>
   <v>       0.22222222 </v>
   <v>       0.44444444 </v>
  </varray>
 </kpoints>
 <parameters>
  <separator name="general" >
   <i type="string" name="SYSTEM">unknown system</i>
   <i type="logical" name="LCOMPAT"> F  </i>
  </separator>
  <separator name="electronic" >
   <i type="string" name="PREC">n</i>
   <i name="ENMAX">    450.00000000</i>
   <i name="ENAUG">    385.84300000</i>
   <i name="EDIFF">      0.00010000</i>
   <i type="int" name="IALGO">    53</i>
   <i type="int" name="IWAVPR">    10</i>
   <i type="int" name="NBANDS">    56</i>
   <i name="NELECT">      8.00000000</i>
   <i type="int" name="TURBO">     0</i>
   <i type="int" name="IRESTART">     0</i>
   <i type="int" name="NREBOOT">     0</i>
   <i type="int" name="NMIN">     0</i>
   <i name="EREF">      0.00000000</i>
   <separator name="electronic smearing" >
    <i type="int" name="ISMEAR">     1</i>
    <i name="SIGMA">      0.05000000</i>
    <i name="KSPACING">      0.50000000</i>
    <i type="logical" name="KGAMMA"> T  </i>
   </separator>
   <separator name="electronic projectors" >
    <i type="logical" name="LREAL"> F  </i>
    <v name="ROPT">      0.00000000</v>
    <i type="int" name="LMAXPAW">  -100</i>
    <i type="int" name="LMAXMIX">     2</i>
    <i type="logical" name="NLSPLINE"> F  </i>
   </separator>
   <separator name="electronic startup" >
    <i type="int" name="ISTART">     0</i>
    <i type="int" name="ICHARG">     2</i>
    <i type="int" name="INIWAV">     1</i>
   </separator>
   <separator name="electronic spin" >
    <i type="int" name="ISPIN">     1</i>
    <i type="logical" name="LNONCOLLINEAR"> F  </i>
    <v name="MAGMOM">      1.00000000      1.00000000</v>
    <i name="NUPDOWN">     -1.00000000</i>
    <i type="logical" name="LSORBIT"> F  </i>
    <v name="SAXIS">      0.00000000      0.00000000      1.00000000</v>
    <i type="logical" name="LSPIRAL"> F  </i>
    <v name="QSPIRAL">      0.00000000      0.00000000      0.00000000</v>
    <i type="logical" name="LZEROZ"> F  </i>
   </separator>
   <separator name="electronic exchange-correlation" >
    <i type="logical" name="LASPH"> F  </i>
    <i type="logical" name="LMETAGGA"> F  </i>
   </separator>
   <separator name="electronic convergence" >
    <i type="int" name="NELM">    60</i>
    <i type="int" name="NELMDL">    -5</i>
    <i type="int" name="NELMIN">     2</i>
    <i name="ENINI">    450.00000000</i>
    <separator name="electronic convergence detail" >
     <i type="logical" name="LDIAG"> T  </i>
     <i type="logical" name="LSUBROT"> F  </i>
     <i name="WEIMIN">      0.00000000</i>
     <i name="EBREAK">      0.00000045</i>
     <i name="DEPER">      0.30000000</i>
     <i type="int" name="NRMM">     4</i>
     <i name="TIME">      0.40000000</i>
    </separator>
   </separator>
   <separator name="electronic mixer" >
    <i name="AMIX">      0.40000000</i>
    <i name="BMIX">      1.00000000</i>
    <i name="AMIN">      0.10000000</i>
    <i name="AMIX_MAG">      1.60000000</i>
    <i name="BMIX_MAG">      1.00000000</i>
    <separator name="electronic mixer details" >
     <i type="int" name="IMIX">     4</i>
     <i type="logical" name="MIXFIRST"> F  </i>
     <i type="int" name="MAXMIX">   -45</i>
     <i name="WC">    100.00000000</i>
     <i type="int" name="INIMIX">     1</i>
     <i type="int" name="MIXPRE">     1</i>
     <i type="int" name="MREMOVE">     5</i>
    </separator>
   </separator>
   <separator name="electronic dipolcorrection" >
    <i type="logical" name="LDIPOL"> F  </i>
    <i type="logical" name="LMONO"> F  </i>
    <i type="int" name="IDIPOL">     0</i>
    <i name="EPSILON">      1.00000000</i>
    <v name="DIPOL">   -100.00000000   -100.00000000   -100.00000000</v>
    <i name="EFIELD">      0.00000000</i>
   </separator>
  </separator>
  <separator name="grids" >
   <i type="int" name="NGX">    24</i>
   <i type="int" name="NGY">    24</i>
   <i type="int" name="NGZ">    24</i>
   <i type="int" name="NGXF">    48</i>
   <i type="int" name="NGYF">    48</i>
   <i type="int" name="NGZF">    48</i>
   <i type="logical" name="ADDGRID"> F  </i>
  </separator>
  <separator name="ionic" >
   <i type="int" name="NSW">     0</i>
   <i type="int" name="IBRION">    -1</i>
   <i type="int" name="MDALGO">     0</i>
   <i type="int" name="ISIF">     2</i>
   <i name="PSTRESS">      0.00000000</i>
   <i name="EDIFFG">      0.00100000</i>
   <i type="int" name="NFREE">     0</i>
   <i name="POTIM">      0.50000000</i>
   <i name="SMASS">     -3.00000000</i>
   <i name="SCALEE">      1.00000000</i>
  </separator>
  <separator name="ionic md" >
   <i name="TEBEG">      0.00010000</i>
   <i name="TEEND">      0.00010000</i>
   <i type="int" name="NBLOCK">     1</i>
   <i type="int" name="KBLOCK">     1</i>
   <i type="int" name="NPACO">   256</i>
   <i name="APACO">     16.00000000</i>
  </separator>
  <separator name="symmetry" >
   <i type="int" name="ISYM">     2</i>
   <i name="SYMPREC">      0.00001000</i>
  </separator>
  <separator name="dos" >
   <i type="int" name="LORBIT">     0</i>
   <v name="RWIGS">     -1.00000000</v>
   <i type="int" name="NEDOS">   301</i>
   <i name="EMIN">     10.00000000</i>
   <i name="EMAX">    -10.00000000</i>
   <i name="EFERMI">      0.00000000</i>
  </separator>
  <separator name="writing" >
   <i type="int" name="NWRITE">     2</i>
   <i type="logical" name="LWAVE"> T  </i>
   <i type="logical" name="LDOWNSAMPLE"> F  </i>
   <i type="logical" name="LCHARG"> T  </i>
   <i type="logical" name="LPARD"> F  </i>
   <i type="logical" name="LVTOT"> F  </i>
   <i type="logical" name="LVHAR"> F  </i>
   <i type="logical" name="LELF"> F  </i>
   <i type="logical" name="LOPTICS"> F  </i>
   <v name="STM">      0.00000000      0.00000000      0.00000000      0.00000000      0.00000000      0.00000000      0.00000000</v>
  </separator>
  <separator name="performance" >
   <i type="int" name="NPAR">    56</i>
   <i type="int" name="NSIM">     4</i>
   <i type="int" name="NBLK">    -1</i>
   <i type="logical" name="LPLANE"> T  </i>
   <i type="logical" name="LSCALAPACK"> T  </i>
   <i type="logical" name="LSCAAWARE"> T  </i>
   <i type="logical" name="LSCALU"> F  </i>
   <i type="logical" name="LASYNC"> F  </i>
   <i type="logical" name="LORBITALREAL"> F  </i>
  </separator>
  <separator name="miscellaneous" >
   <i type="int" name="IDIOT">     3</i>
   <i type="int" name="ISPECIAL">     0</i>
   <i type="logical" name="LMUSIC"> F  </i>
   <v name="POMASS">     72.61000000</v>
   <v name="DARWINR">      0.00000000</v>
   <v name="DARWINV">      1.00000000</v>
   <i type="logical" name="LCORR"> T  </i>
  </separator>
  <i type="logical" name="GGA_COMPAT"> T  </i>
  <i type="logical" name="LBERRY"> F  </i>
  <i type="int" name="ICORELEVEL">     0</i>
  <i type="logical" name="LDAU"> F  </i>
  <i type="int" name="I_CONSTRAINED_M">     0</i>
  <separator name="electronic exchange-correlation" >
   <i type="string" name="GGA">PE</i>
   <i type="int" name="VOSKOWN">     0</i>
   <i type="logical" name="LHFCALC"> F  </i>
   <i type="string" name="PRECFOCK"></i>
   <i type="logical" name="LSYMGRAD"> F  </i>
   <i type="logical" name="LHFONE"> F  </i>
   <i type="logical" name="LRHFCALC"> F  </i>
   <i type="logical" name="LTHOMAS"> F  </i>
   <i type="logical" name="LMODELHF"> F  </i>
   <i name="ENCUT4O">     -1.00000000</i>
   <i type="int" name="EXXOEP">     0</i>
   <i type="int" name="FOURORBIT">     0</i>
   <i name="AEXX">      0.00000000</i>
   <i name="HFALPHA">      0.00000000</i>
   <i name="MCALPHA">      0.00000000</i>
   <i name="ALDAX">      1.00000000</i>
   <i name="AGGAX">      1.00000000</i>
   <i name="ALDAC">      1.00000000</i>
   <i name="AGGAC">      1.00000000</i>
   <i type="int" name="NKREDX">     1</i>
   <i type="int" name="NKREDY">     1</i>
   <i type="int" name="NKREDZ">     1</i>
   <i type="logical" name="SHIFTRED"> F  </i>
   <i type="logical" name="ODDONLY"> F  </i>
   <i type="logical" name="EVENONLY"> F  </i>
   <i type="int" name="LMAXFOCK">     0</i>
   <i type="int" name="NMAXFOCKAE">     0</i>
   <i type="logical" name="LFOCKAEDFT"> F  </i>
   <i name="HFSCREEN">      0.00000000</i>
   <i name="HFSCREENC">      0.00000000</i>
   <i type="int" name="NBANDSGWLOW">     0</i>
  </separator>
  <separator name="vdW DFT" >
   <i type="logical" name="LUSE_VDW"> F  </i>
   <i name="Zab_VDW">     -0.84910000</i>
   <i name="PARAM1">      0.12340000</i>
   <i name="PARAM2">      1.00000000</i>
   <i name="PARAM3">      0.00000000</i>
  </separator>
  <separator name="model GW" >
   <i type="int" name="MODEL_GW">     0</i>
   <i name="MODEL_EPS0">     13.40542284</i>
   <i name="MODEL_ALPHA">      1.00000000</i>
  </separator>
  <separator name="linear response parameters" >
   <i type="logical" name="LEPSILON"> F  </i>
   <i type="logical" name="LRPA"> F  </i>
   <i type="logical" name="LNABLA"> F  </i>
   <i type="logical" name="LVEL"> F  </i>
   <i type="int" name="KINTER">     0</i>
   <i name="CSHIFT">      0.10000000</i>
   <i name="OMEGAMAX">     -1.00000000</i>
   <i name="DEG_THRESHOLD">      0.00200000</i>
   <i name="RTIME">     -0.10000000</i>
   <i name="WPLASMAI">      0.00000000</i>
   <v name="DFIELD">      0.00000000      0.00000000      0.00000000</v>
   <v name="WPLASMA">      0.00000000      0.00000000      0.00000000      0.00000000      0.00000000      0.00000000      0.00000000      0.00000000      0.00000000</v>
  </separator>
  <separator name="orbital magnetization" >
   <i type="logical" name="NUCIND"> F  </i>
   <v name="MAGPOS">      0.00000000      0.00000000      0.00000000</v>
   <i type="logical" name="LNICSALL"> T  </i>
   <i type="logical" name="ORBITALMAG"> F  </i>
   <i type="logical" name="LMAGBLOCH"> F  </i>
   <i type="logical" name="LCHIMAG"> F  </i>
   <i type="logical" name="LGAUGE"> T  </i>
   <i type="int" name="MAGATOM">     0</i>
   <v name="MAGDIPOL">      0.00000000      0.00000000      0.00000000</v>
   <v name="AVECCONST">      0.00000000      0.00000000      0.00000000</v>
  </separator>
  <separator name="response functions" >
   <i type="logical" name="LADDER"> F  </i>
   <i type="logical" name="LRPAFORCE"> F  </i>
   <i type="logical" name="LFXC"> F  </i>
   <i type="logical" name="LHARTREE"> T  </i>
   <i type="int" name="IBSE">     0</i>
   <v type="int" name="KPOINT">    -1     0     0     0</v>
   <i type="logical" name="LTCTE"> F  </i>
   <i type="logical" name="LTETE"> F  </i>
   <i type="logical" name="LTRIPLET"> F  </i>
   <i type="logical" name="LFXCEPS"> F  </i>
   <i type="logical" name="LFXHEG"> F  </i>
   <i type="int" name="NATURALO">     2</i>
   <i type="logical" name="L2ORDER"> F  </i>
   <i type="logical" name="LMP2LT"> F  </i>
   <i type="logical" name="LUSEW"> F  </i>
   <i name="ENCUTGW">     -2.00000000</i>
   <i name="ENCUTGWSOFT">     -2.00000000</i>
   <i name="ENCUTLF">     -1.00000000</i>
   <i type="int" name="LMAXMP2">    -1</i>
   <i name="SCISSOR">      0.00000000</i>
   <i type="int" name="NOMEGA">     0</i>
   <i type="int" name="NOMEGAR">     0</i>
   <i type="int" name="NBANDSGW">    -1</i>
   <i type="int" name="NBANDSO">    -1</i>
   <i type="int" name="NBANDSV">    -1</i>
   <i type="int" name="NELM">     1</i>
   <i type="int" name="NELMHF">     1</i>
   <i type="int" name="DIM">     3</i>
   <i type="int" name="ANTIRES">     0</i>
   <i name="OMEGAMAX">    -30.00000000</i>
   <i name="OMEGAMIN">    -30.00000000</i>
   <i name="OMEGATL">   -200.00000000</i>
   <i type="int" name="OMEGAGRID">   140</i>
   <i name="CSHIFT">     -0.10000000</i>
   <i type="logical" name="SELFENERGY"> F  </i>
   <i type="logical" name="LSPECTRAL"> F  </i>
   <i type="logical" name="LSPECTRALGW"> F  </i>
   <i type="logical" name="LSINGLES"> F  </i>
   <i type="logical" name="LFERMIGW"> F  </i>
   <i type="logical" name="ODDONLYGW"> F  </i>
   <i type="logical" name="EVENONLYGW"> F  </i>
   <i type="int" name="NKREDLFX">     1</i>
   <i type="int" name="NKREDLFY">     1</i>
   <i type="int" name="NKREDLFZ">     1</i>
   <i type="int" name="MAXMEM">  2800</i>
   <i type="int" name="TELESCOPE">     0</i>
   <i type="int" name="TAUPAR">     1</i>
   <i type="int" name="OMEGAPAR">    -1</i>
   <i name="LAMBDA">      1.00000000</i>
  </separator>
  <separator name="External order field" >
   <i name="OFIELD_KAPPA">      0.00000000</i>
   <v name="OFIELD_K">      0.00000000      0.00000000      0.00000000</v>
   <i name="OFIELD_Q6_NEAR">      0.00000000</i>
   <i name="OFIELD_Q6_FAR">      0.00000000</i>
   <i name="OFIELD_A">      0.00000000</i>
  </separator>
 </parameters>
 <atominfo>
  <atoms>       2 </atoms>
  <types>       1 </types>
  <array name="atoms" >
   <dimension dim="1">ion</dimension>
   <field type="string">element</field>
   <field type="int">atomtype</field>
   <set>
    <rc><c>Ge</c><c>   1</c></rc>
    <rc><c>Ge</c><c>   1</c></rc>
   </set>
  </array>
  <array name="atomtypes" >
   <dimension dim="1">type</dimension>
   <field type="int">atomspertype</field>
   <field type="string">element</field>
   <field>mass</field>
   <field>valence</field>
   <field type="string">pseudopotential</field>
   <set>
    <rc><c>   2</c><c>Ge</c><c>     72.61000000</c><c>      4.00000000</c><c>  PAW_PBE Ge 05Jan2001                  </c></rc>
   </set>
  </array>
 </atominfo>
 <structure name="initialpos" >
  <crystal>
   <varray name="basis" >
    <v>       0.00000000       2.81650000       2.81650000 </v>
    <v>       2.81650000       0.00000000       2.81650000 </v>
    <v>       2.81650000       2.81650000       0.00000000 </v>
   </varray>
   <i name="volume">     44.68474278 </i>
   <varray name="rec_basis" >
    <v>      -0.17752530       0.17752530       0.17752530 </v>
    <v>       0.17752530      -0.17752530       0.17752530 </v>
    <v>       0.17752530       0.17752530      -0.17752530 </v>
   </varray>
  </crystal>
  <varray name="positions" >
   <v>       0.00000000       0.00000000       0.00000000 </v>
   <v>       0.25000000       0.25000000       0.25000000 </v>
  </varray>
 </structure>
 <calculation>
  <scstep>
   <time name="total">    0.29    0.57</time>
   <energy>
    <i name="alphaZ">     17.10940282 </i>
    <i name="ewald">   -220.32663596 </i>
    <i name="hartreedc">    -12.42928696 </i>
    <i name="XCdc">    -14.98288157 </i>
    <i name="pawpsdc">    176.29039040 </i>
    <i name="pawaedc">   -147.31525009 </i>
    <i name="eentropy">     -0.00119833 </i>
    <i name="bandstr">     -9.69851484 </i>
    <i name="atom">    209.99145059 </i>
    <i name="e_fr_energy">     -1.36252396 </i>
    <i name="e_wo_entrp">     -1.36132562 </i>
    <i name="e_0_energy">     -1.36212451 </i>
   </energy>
  </scstep>
  <scstep>
   <time name="total">    0.51    1.01</time>
   <energy>
    <i name="e_fr_energy">     -8.24550710 </i>
    <i name="e_wo_entrp">     -8.24584934 </i>
    <i name="e_0_energy">     -8.24562118 </i>
   </energy>
  </scstep>
  <scstep>
   <time name="total">    0.34    0.67</time>
   <energy>
    <i name="e_fr_energy">     -8.27771516 </i>
    <i name="e_wo_entrp">     -8.27805521 </i>
    <i name="e_0_energy">     -8.27782851 </i>
   </energy>
  </scstep>
  <scstep>
   <time name="total">    0.51    1.02</time>
   <energy>
    <i name="e_fr_energy">     -8.27795625 </i>
    <i name="e_wo_entrp">     -8.27829634 </i>
    <i name="e_0_energy">     -8.27806961 </i>
   </energy>
  </scstep>
  <scstep>
   <time name="total">    0.41    0.81</time>
   <energy>
    <i name="e_fr_energy">     -8.27795675 </i>
    <i name="e_wo_entrp">     -8.27829684 </i>
    <i name="e_0_energy">     -8.27807011 </i>
   </energy>
  </scstep>
  <scstep>
   <time name="total">    0.06    0.13</time>
   <energy>
    <i name="e_fr_energy">     -8.10613886 </i>
    <i name="e_wo_entrp">     -8.10627537 </i>
    <i name="e_0_energy">     -8.10618436 </i>
   </energy>
  </scstep>
  <scstep>
   <time name="total">    0.05    0.11</time>
   <energy>
    <i name="e_fr_energy">     -8.12166719 </i>
    <i name="e_wo_entrp">     -8.12199346 </i>
    <i name="e_0_energy">     -8.12177595 </i>
   </energy>
  </scstep>
  <scstep>
   <time name="total">    0.06    0.11</time>
   <energy>
    <i name="e_fr_energy">     -8.13384780 </i>
    <i name="e_wo_entrp">     -8.13417203 </i>
    <i name="e_0_energy">     -8.13395587 </i>
   </energy>
  </scstep>
  <scstep>
   <time name="total">    0.05    0.11</time>
   <energy>
    <i name="e_fr_energy">     -8.14035088 </i>
    <i name="e_wo_entrp">     -8.14046236 </i>
    <i name="e_0_energy">     -8.14038804 </i>
   </energy>
  </scstep>
  <scstep>
   <time name="total">    0.05    0.11</time>
   <energy>
    <i name="e_fr_energy">     -8.14335432 </i>
    <i name="e_wo_entrp">     -8.14346499 </i>
    <i name="e_0_energy">     -8.14339121 </i>
   </energy>
  </scstep>
  <scstep>
   <time name="total">    0.05    0.11</time>
   <energy>
    <i name="e_fr_energy">     -8.14441173 </i>
    <i name="e_wo_entrp">     -8.14452219 </i>
    <i name="e_0_energy">     -8.14444855 </i>
   </energy>
  </scstep>
  <scstep>
   <time name="total">    0.05    0.11</time>
   <energy>
    <i name="e_fr_energy">     -8.14476446 </i>
    <i name="e_wo_entrp">     -8.14487501 </i>
    <i name="e_0_energy">     -8.14480131 </i>
   </energy>
  </scstep>
  <scstep>
   <time name="total">    0.08    0.16</time>
   <energy>
    <i name="alphaZ">     17.10940282 </i>
    <i name="ewald">   -220.32663596 </i>
    <i name="hartreedc">    -16.27788330 </i>
    <i name="XCdc">    -14.25283245 </i>
    <i name="pawpsdc">    487.24712833 </i>
    <i name="pawaedc">   -458.66068516 </i>
    <i name="eentropy">      0.00011078 </i>
    <i name="bandstr">    -12.97491785 </i>
    <i name="atom">    209.99145059 </i>
    <i name="e_fr_energy">     -8.14486243 </i>
    <i name="e_wo_entrp">     -8.14497321 </i>
    <i name="e_0_energy">     -8.14489935 </i>
   </energy>
  </scstep>
  <structure>
   <crystal>
    <varray name="basis" >
     <v>       0.00000000       2.81650000       2.81650000 </v>
     <v>       2.81650000       0.00000000       2.81650000 </v>
     <v>       2.81650000       2.81650000       0.00000000 </v>
    </varray>
    <i name="volume">     44.68474278 </i>
    <varray name="rec_basis" >
     <v>      -0.17752530       0.17752530       0.17752530 </v>
     <v>       0.17752530      -0.17752530       0.17752530 </v>
     <v>       0.17752530       0.17752530      -0.17752530 </v>
    </varray>
   </crystal>
   <varray name="positions" >
    <v>       0.00000000       0.00000000       0.00000000 </v>
    <v>       0.25000000       0.25000000       0.25000000 </v>
   </varray>
  </structure>
  <varray name="forces" >
   <v>       0.00000000       0.00000000       0.00000000 </v>
   <v>      -0.00000000      -0.00000000      -0.00000000 </v>
  </varray>
  <varray name="stress" >
   <v>      65.41171574       0.00000000       0.00000000 </v>
   <v>       0.00000000      65.41171574       0.00000000 </v>
   <v>       0.00000000      -0.00000000      65.41171574 </v>
  </varray>
  <energy>
   <i name="e_fr_energy">     -8.14486243 </i>
   <i name="e_wo_entrp">     -8.14489935 </i>
   <i name="e_0_energy">      0.00011078 </i>
  </energy>
  <time name="totalsc">    2.75    5.57</time>
  <eigenvalues>
   <array>
    <dimension dim="1">band</dimension>
    <dimension dim="2">kpoint</dimension>
    <dimension dim="3">spin</dimension>
    <field>eigene</field>
    <field>occ</field>
    <set>
     <set comment="spin 1">
      <set comment="kpoint 1">
       <r>   -8.8970    1.0000 </r>
       <r>    3.9962    1.0001 </r>
       <r>    3.9962    1.0001 </r>
       <r>    3.9962    1.0001 </r>
       <r>    4.1875   -0.0002 </r>
       <r>    6.4862    0.0000 </r>
       <r>    6.4862    0.0000 </r>
       <r>    6.4862    0.0000 </r>
       <r>   10.4765    0.0000 </r>
       <r>   13.2283    0.0000 </r>
       <r>   13.2283    0.0000 </r>
       <r>   14.6914    0.0000 </r>
       <r>   14.6914    0.0000 </r>
       <r>   14.6914    0.0000 </r>
       <r>   17.9220    0.0000 </r>
       <r>   28.3472    0.0000 </r>
       <r>   28.3472    0.0000 </r>
       <r>   28.3472    0.0000 </r>
       <r>   29.1773    0.0000 </r>
       <r>   29.1773    0.0000 </r>
       <r>   29.1773    0.0000 </r>
       <r>   29.5215    0.0000 </r>
       <r>   29.5215    0.0000 </r>
       <r>   30.2052    0.0000 </r>
       <r>   30.2052    0.0000 </r>
       <r>   30.2052    0.0000 </r>
       <r>   38.8001    0.0000 </r>
       <r>   39.1874    0.0000 </r>
       <r>   39.1874    0.0000 </r>
       <r>   39.1874    0.0000 </r>
       <r>   42.0089    0.0000 </r>
       <r>   42.0089    0.0000 </r>
       <r>   42.5477    0.0000 </r>
       <r>   42.5477    0.0000 </r>
       <r>   43.5484    0.0000 </r>
       <r>   43.7482    0.0000 </r>
       <r>   43.7482    0.0000 </r>
       <r>   43.7483    0.0000 </r>
       <r>   44.1472    0.0000 </r>
       <r>   44.1472    0.0000 </r>
       <r>   44.1472    0.0000 </r>
       <r>   44.9237    0.0000 </r>
       <r>   44.9237    0.0000 </r>
       <r>   44.9237    0.0000 </r>
       <r>   45.4697    0.0000 </r>
       <r>   45.4697    0.0000 </r>
       <r>   45.4698    0.0000 </r>
       <r>   46.5453    0.0000 </r>
       <r>   46.5453    0.0000 </r>
       <r>   46.5458    0.0000 </r>
       <r>   50.0843    0.0000 </r>
       <r>   51.9857    0.0000 </r>
       <r>   51.9859    0.0000 </r>
       <r>   52.1622    0.0000 </r>
       <r>   52.2829    0.0000 </r>
       <r>   52.2841    0.0000 </r>
      </set>
      <set comment="kpoint 2">
       <r>   -7.6130    1.0000 </r>
       <r>   -2.1496    1.0000 </r>
       <r>    2.7919    1.0000 </r>
       <r>    2.7919    1.0000 </r>
       <r>    4.4362   -0.0000 </r>
       <r>    7.7148    0.0000 </r>
       <r>    7.7148    0.0000 </r>
       <r>   11.0848    0.0000 </r>
       <r>   11.8813    0.0000 </r>
       <r>   12.8193    0.0000 </r>
       <r>   12.8193    0.0000 </r>
       <r>   16.5297    0.0000 </r>
       <r>   19.4149    0.0000 </r>
       <r>   19.4149    0.0000 </r>
       <r>   20.6349    0.0000 </r>
       <r>   20.9989    0.0000 </r>
       <r>   20.9989    0.0000 </r>
       <r>   24.3466    0.0000 </r>
       <r>   29.0871    0.0000 </r>
       <r>   29.4864    0.0000 </r>
       <r>   29.4864    0.0000 </r>
       <r>   30.3370    0.0000 </r>
       <r>   30.3370    0.0000 </r>
       <r>   31.2249    0.0000 </r>
       <r>   31.4318    0.0000 </r>
       <r>   31.4318    0.0000 </r>
       <r>   33.3125    0.0000 </r>
       <r>   36.0338    0.0000 </r>
       <r>   36.0338    0.0000 </r>
       <r>   36.6196    0.0000 </r>
       <r>   36.6196    0.0000 </r>
       <r>   36.8206    0.0000 </r>
       <r>   38.5431    0.0000 </r>
       <r>   39.2697    0.0000 </r>
       <r>   41.8990    0.0000 </r>
       <r>   41.8990    0.0000 </r>
       <r>   42.6201    0.0000 </r>
       <r>   42.6201    0.0000 </r>
       <r>   43.1949    0.0000 </r>
       <r>   44.7927    0.0000 </r>
       <r>   44.7927    0.0000 </r>
       <r>   44.9109    0.0000 </r>
       <r>   46.3895    0.0000 </r>
       <r>   50.0522    0.0000 </r>
       <r>   50.0523    0.0000 </r>
       <r>   51.2880    0.0000 </r>
       <r>   51.2883    0.0000 </r>
       <r>   52.6708    0.0000 </r>
       <r>   53.6387    0.0000 </r>
       <r>   53.6411    0.0000 </r>
       <r>   54.2220    0.0000 </r>
       <r>   56.5716    0.0000 </r>
       <r>   57.1006    0.0000 </r>
       <r>   57.1788    0.0000 </r>
       <r>   58.3314    0.0000 </r>
       <r>   58.3850    0.0000 </r>
      </set>
      <set comment="kpoint 3">
       <r>   -7.0958    1.0000 </r>
       <r>   -2.2215    1.0000 </r>
       <r>    1.3139    1.0000 </r>
       <r>    1.3139    1.0000 </r>
       <r>    4.5972   -0.0000 </r>
       <r>    5.9186    0.0000 </r>
       <r>   11.3260    0.0000 </r>
       <r>   11.3260    0.0000 </r>
       <r>   12.5387    0.0000 </r>
       <r>   15.0713    0.0000 </r>
       <r>   15.9655    0.0000 </r>
       <r>   18.3659    0.0000 </r>
       <r>   18.3659    0.0000 </r>
       <r>   18.9225    0.0000 </r>
       <r>   19.3851    0.0000 </r>
       <r>   19.3851    0.0000 </r>
       <r>   20.6353    0.0000 </r>
       <r>   21.9769    0.0000 </r>
       <r>   27.5728    0.0000 </r>
       <r>   28.3756    0.0000 </r>
       <r>   28.6897    0.0000 </r>
       <r>   28.6897    0.0000 </r>
       <r>   29.6136    0.0000 </r>
       <r>   30.4689    0.0000 </r>
       <r>   31.3295    0.0000 </r>
       <r>   31.3295    0.0000 </r>
       <r>   32.7215    0.0000 </r>
       <r>   36.4974    0.0000 </r>
       <r>   37.4363    0.0000 </r>
       <r>   37.4363    0.0000 </r>
       <r>   38.7767    0.0000 </r>
       <r>   39.3531    0.0000 </r>
       <r>   40.5868    0.0000 </r>
       <r>   40.5868    0.0000 </r>
       <r>   40.8274    0.0000 </r>
       <r>   40.9411    0.0000 </r>
       <r>   40.9411    0.0000 </r>
       <r>   43.0243    0.0000 </r>
       <r>   43.6884    0.0000 </r>
       <r>   43.7277    0.0000 </r>
       <r>   44.5232    0.0000 </r>
       <r>   44.5232    0.0000 </r>
       <r>   46.2701    0.0000 </r>
       <r>   49.1197    0.0000 </r>
       <r>   50.4785    0.0000 </r>
       <r>   50.4785    0.0000 </r>
       <r>   51.5795    0.0000 </r>
       <r>   52.4295    0.0000 </r>
       <r>   53.2055    0.0000 </r>
       <r>   53.2061    0.0000 </r>
       <r>   53.7061    0.0000 </r>
       <r>   54.2827    0.0000 </r>
       <r>   57.8563    0.0000 </r>
       <r>   58.5124    0.0000 </r>
       <r>   58.5636    0.0000 </r>
       <r>   59.8890    0.0000 </r>
      </set>
      <set comment="kpoint 4">
       <r>   -5.8713    1.0000 </r>
       <r>   -3.8941    1.0000 </r>
       <r>   -0.5745    1.0000 </r>
       <r>    1.6160    1.0000 </r>
       <r>    5.3909   -0.0000 </r>
       <r>    9.7664    0.0000 </r>
       <r>   10.4117    0.0000 </r>
       <r>   10.4311    0.0000 </r>
       <r>   11.1883    0.0000 </r>
       <r>   12.7680    0.0000 </r>
       <r>   17.6262    0.0000 </r>
       <r>   17.8357    0.0000 </r>
       <r>   19.5550    0.0000 </r>
       <r>   20.7747    0.0000 </r>
       <r>   21.1270    0.0000 </r>
       <r>   22.2109    0.0000 </r>
       <r>   22.3511    0.0000 </r>
       <r>   24.2663    0.0000 </r>
       <r>   25.5124    0.0000 </r>
       <r>   25.8863    0.0000 </r>
       <r>   26.0062    0.0000 </r>
       <r>   26.3214    0.0000 </r>
       <r>   28.9621    0.0000 </r>
       <r>   29.7762    0.0000 </r>
       <r>   29.8705    0.0000 </r>
       <r>   31.8616    0.0000 </r>
       <r>   31.9295    0.0000 </r>
       <r>   32.2853    0.0000 </r>
       <r>   36.8931    0.0000 </r>
       <r>   37.3523    0.0000 </r>
       <r>   37.4048    0.0000 </r>
       <r>   37.7385    0.0000 </r>
       <r>   38.0160    0.0000 </r>
       <r>   38.5761    0.0000 </r>
       <r>   41.5440    0.0000 </r>
       <r>   41.8692    0.0000 </r>
       <r>   43.0862    0.0000 </r>
       <r>   45.1432    0.0000 </r>
       <r>   45.6033    0.0000 </r>
       <r>   47.4279    0.0000 </r>
       <r>   47.8734    0.0000 </r>
       <r>   48.6895    0.0000 </r>
       <r>   49.1667    0.0000 </r>
       <r>   50.5203    0.0000 </r>
       <r>   50.5662    0.0000 </r>
       <r>   51.1563    0.0000 </r>
       <r>   51.3500    0.0000 </r>
       <r>   52.6415    0.0000 </r>
       <r>   53.2241    0.0000 </r>
       <r>   53.7813    0.0000 </r>
       <r>   54.9064    0.0000 </r>
       <r>   55.2721    0.0000 </r>
       <r>   56.1075    0.0000 </r>
       <r>   56.1454    0.0000 </r>
       <r>   57.9060    0.0000 </r>
       <r>   58.4754    0.0000 </r>
      </set>
     </set>
    </set>
   </array>
  </eigenvalues>
  <separator name="orbital magnetization" >
   <v name="MAGDIPOLOUT">      0.00000000      0.00000000      0.00000000</v>
  </separator>
  <dos>
   <i name="efermi">      4.14537035 </i>
   <total>
    <array>
     <dimension dim="1">gridpoints</dimension>
     <dimension dim="2">spin</dimension>
     <field>energy</field>
     <field>total</field>
     <field>integrated</field>
     <set>
      <set comment="spin 1">
       <r>   -12.3363     0.0000     0.0000 </r>
       <r>   -12.0841     0.0000     0.0000 </r>
       <r>   -11.8319     0.0000     0.0000 </r>
       <r>   -11.5796     0.0000     0.0000 </r>
       <r>   -11.3274     0.0000     0.0000 </r>
       <r>   -11.0752     0.0000     0.0000 </r>
       <r>   -10.8230     0.0000     0.0000 </r>
       <r>   -10.5708     0.0000     0.0000 </r>
       <r>   -10.3186     0.0000     0.0000 </r>
       <r>   -10.0664     0.0000     0.0000 </r>
       <r>    -9.8141     0.0000     0.0000 </r>
       <r>    -9.5619     0.0000     0.0000 </r>
       <r>    -9.3097    -0.0000    -0.0000 </r>
       <r>    -9.0575    -0.0000    -0.0000 </r>
       <r>    -8.8053     0.2976     0.0750 </r>
       <r>    -8.5531    -0.0039     0.0741 </r>
       <r>    -8.3008     0.0000     0.0741 </r>
       <r>    -8.0486    -0.0000     0.0741 </r>
       <r>    -7.7964    -0.0000     0.0741 </r>
       <r>    -7.5442     2.4262     0.6860 </r>
       <r>    -7.2920    -0.0766     0.6667 </r>
       <r>    -7.0398     1.8213     1.1260 </r>
       <r>    -6.7876    -0.0591     1.1111 </r>
       <r>    -6.5353     0.0000     1.1111 </r>
       <r>    -6.2831    -0.0000     1.1111 </r>
       <r>    -6.0309    -0.0001     1.1111 </r>
       <r>    -5.7787     3.5685     2.0111 </r>
       <r>    -5.5265    -0.0440     2.0000 </r>
       <r>    -5.2743     0.0000     2.0000 </r>
       <r>    -5.0220     0.0000     2.0000 </r>
       <r>    -4.7698     0.0000     2.0000 </r>
       <r>    -4.5176    -0.0000     2.0000 </r>
       <r>    -4.2654    -0.0000     2.0000 </r>
       <r>    -4.0132    -0.0068     1.9983 </r>
       <r>    -3.7610     3.5330     2.8894 </r>
       <r>    -3.5088    -0.0019     2.8889 </r>
       <r>    -3.2565     0.0000     2.8889 </r>
       <r>    -3.0043     0.0000     2.8889 </r>
       <r>    -2.7521    -0.0000     2.8889 </r>
       <r>    -2.4999    -0.0000     2.8889 </r>
       <r>    -2.2477     0.1854     2.9357 </r>
       <r>    -1.9955     3.9264     3.9260 </r>
       <r>    -1.7432     0.0000     3.9259 </r>
       <r>    -1.4910     0.0000     3.9259 </r>
       <r>    -1.2388     0.0000     3.9259 </r>
       <r>    -0.9866    -0.0000     3.9259 </r>
       <r>    -0.7344    -0.0001     3.9259 </r>
       <r>    -0.4822     3.5691     4.8261 </r>
       <r>    -0.2300    -0.0447     4.8148 </r>
       <r>     0.0223     0.0000     4.8148 </r>
       <r>     0.2745     0.0000     4.8148 </r>
       <r>     0.5267     0.0000     4.8148 </r>
       <r>     0.7789    -0.0000     4.8148 </r>
       <r>     1.0311    -0.0000     4.8148 </r>
       <r>     1.2833     0.2629     4.8811 </r>
       <r>     1.5356     3.1816     5.6836 </r>
       <r>     1.7878     3.6042     6.5926 </r>
       <r>     2.0400     0.0000     6.5926 </r>
       <r>     2.2922    -0.0000     6.5926 </r>
       <r>     2.5444    -0.0000     6.5926 </r>
       <r>     2.7966     2.7209     7.2788 </r>
       <r>     3.0488     1.9782     7.7778 </r>
       <r>     3.3011     0.0000     7.7778 </r>
       <r>     3.5533    -0.0000     7.7778 </r>
       <r>     3.8055    -0.0000     7.7778 </r>
       <r>     4.0577     0.9121     8.0078 </r>
       <r>     4.3099     0.2607     8.0736 </r>
       <r>     4.5621     2.4244     8.6850 </r>
       <r>     4.8144     1.6893     9.1111 </r>
       <r>     5.0666    -0.0000     9.1111 </r>
       <r>     5.3188    -0.1061     9.0843 </r>
       <r>     5.5710     3.6304    10.0000 </r>
       <r>     5.8232    -0.0188     9.9953 </r>
       <r>     6.0754     1.7810    10.4445 </r>
       <r>     6.3277    -0.0000    10.4444 </r>
       <r>     6.5799     0.8915    10.6693 </r>
       <r>     6.8321    -0.0104    10.6667 </r>
       <r>     7.0843    -0.0000    10.6667 </r>
       <r>     7.3365    -0.0000    10.6667 </r>
       <r>     7.5887    -0.0050    10.6654 </r>
       <r>     7.8409     4.7090    11.8531 </r>
       <r>     8.0932    -0.0049    11.8519 </r>
       <r>     8.3454     0.0000    11.8519 </r>
       <r>     8.5976     0.0000    11.8519 </r>
       <r>     8.8498     0.0000    11.8519 </r>
       <r>     9.1020     0.0000    11.8519 </r>
       <r>     9.3542    -0.0000    11.8519 </r>
       <r>     9.6065    -0.0001    11.8518 </r>
       <r>     9.8587     3.5695    12.7521 </r>
       <r>    10.1109    -0.0450    12.7407 </r>
       <r>    10.3631    -0.1952    12.6915 </r>
       <r>    10.6153     7.5377    14.5926 </r>
       <r>    10.8675    -0.0001    14.5926 </r>
       <r>    11.1197     2.1386    15.1320 </r>
       <r>    11.3720     7.3104    16.9758 </r>
       <r>    11.6242    -0.0508    16.9630 </r>
       <r>    11.8764     0.9820    17.2106 </r>
       <r>    12.1286     1.3676    17.5556 </r>
       <r>    12.3808    -0.0001    17.5555 </r>
       <r>    12.6330     1.7806    18.0046 </r>
       <r>    12.8853     8.3741    20.1167 </r>
       <r>    13.1375    -0.1771    20.0720 </r>
       <r>    13.3897     0.5955    20.2222 </r>
       <r>    13.6419     0.0000    20.2222 </r>
       <r>    13.8941     0.0000    20.2222 </r>
       <r>    14.1463    -0.0000    20.2222 </r>
       <r>    14.3985    -0.0000    20.2222 </r>
       <r>    14.6508     0.0060    20.2237 </r>
       <r>    14.9030     0.8750    20.4444 </r>
       <r>    15.1552     1.7966    20.8976 </r>
       <r>    15.4074    -0.0344    20.8889 </r>
       <r>    15.6596    -0.0000    20.8889 </r>
       <r>    15.9118    -0.0550    20.8750 </r>
       <r>    16.1641     1.8172    21.3333 </r>
       <r>    16.4163    -0.0072    21.3315 </r>
       <r>    16.6685     2.3575    21.9261 </r>
       <r>    16.9207    -0.0007    21.9259 </r>
       <r>    17.1729    -0.0000    21.9259 </r>
       <r>    17.4251    -0.0000    21.9259 </r>
       <r>    17.6773     3.6204    22.8390 </r>
       <r>    17.9296     3.6532    23.7604 </r>
       <r>    18.1818     0.0687    23.7778 </r>
       <r>    18.4340     3.6410    24.6961 </r>
       <r>    18.6862    -0.1167    24.6667 </r>
       <r>    18.9384     1.3298    25.0021 </r>
       <r>    19.1906     0.4323    25.1111 </r>
       <r>    19.4429     7.8680    27.0955 </r>
       <r>    19.6951     3.8807    28.0743 </r>
       <r>    19.9473    -0.0010    28.0741 </r>
       <r>    20.1995    -0.0000    28.0741 </r>
       <r>    20.4517    -0.0000    28.0741 </r>
       <r>    20.7039     4.1357    29.1172 </r>
       <r>    20.9561     3.4867    29.9966 </r>
       <r>    21.2084     8.3140    32.0935 </r>
       <r>    21.4606    -0.0769    32.0741 </r>
       <r>    21.7128    -0.0000    32.0741 </r>
       <r>    21.9650     0.5366    32.2094 </r>
       <r>    22.2172     3.3614    33.0572 </r>
       <r>    22.4694     4.9201    34.2981 </r>
       <r>    22.7217    -0.0073    34.2963 </r>
       <r>    22.9739     0.0000    34.2963 </r>
       <r>    23.2261     0.0000    34.2963 </r>
       <r>    23.4783     0.0000    34.2963 </r>
       <r>    23.7305    -0.0000    34.2963 </r>
       <r>    23.9827    -0.0000    34.2963 </r>
       <r>    24.2349     0.2332    34.3551 </r>
       <r>    24.4872     5.6413    35.7779 </r>
       <r>    24.7394    -0.0006    35.7778 </r>
       <r>    24.9916    -0.0000    35.7778 </r>
       <r>    25.2438    -0.0000    35.7778 </r>
       <r>    25.4960     0.8428    35.9903 </r>
       <r>    25.7482     2.6804    36.6664 </r>
       <r>    26.0005     4.9557    37.9163 </r>
       <r>    26.2527     1.9791    38.4154 </r>
       <r>    26.5049     3.6393    39.3333 </r>
       <r>    26.7571     0.0000    39.3333 </r>
       <r>    27.0093    -0.0000    39.3333 </r>
       <r>    27.2615    -0.0000    39.3333 </r>
       <r>    27.5137    -0.0619    39.3177 </r>
       <r>    27.7660     1.8241    39.7778 </r>
       <r>    28.0182    -0.0000    39.7778 </r>
       <r>    28.2704    -0.0328    39.7695 </r>
       <r>    28.5226     2.6762    40.4445 </r>
       <r>    28.7748     3.5890    41.3497 </r>
       <r>    29.0270     3.4985    42.2321 </r>
       <r>    29.2793     3.1978    43.0386 </r>
       <r>    29.5315     5.1021    44.3254 </r>
       <r>    29.7837     4.0822    45.3550 </r>
       <r>    30.0359     4.9069    46.5926 </r>
       <r>    30.2881     0.7928    46.7925 </r>
       <r>    30.5403     6.6036    48.4581 </r>
       <r>    30.7925    -0.0540    48.4444 </r>
       <r>    31.0448    -0.0000    48.4444 </r>
       <r>    31.2970     2.6254    49.1066 </r>
       <r>    31.5492     7.9581    51.1138 </r>
       <r>    31.8014    -0.1383    51.0789 </r>
       <r>    32.0536     7.1809    52.8900 </r>
       <r>    32.3058     2.8771    53.6157 </r>
       <r>    32.5581     0.6428    53.7778 </r>
       <r>    32.8103     1.7893    54.2291 </r>
       <r>    33.0625    -0.0271    54.2222 </r>
       <r>    33.3147     1.2626    54.5407 </r>
       <r>    33.5669     1.0869    54.8148 </r>
       <r>    33.8191     0.0000    54.8148 </r>
       <r>    34.0713     0.0000    54.8148 </r>
       <r>    34.3236     0.0000    54.8148 </r>
       <r>    34.5758     0.0000    54.8148 </r>
       <r>    34.8280     0.0000    54.8148 </r>
       <r>    35.0802     0.0000    54.8148 </r>
       <r>    35.3324     0.0000    54.8148 </r>
       <r>    35.5846    -0.0000    54.8148 </r>
       <r>    35.8369    -0.0000    54.8148 </r>
       <r>    36.0891     4.8535    56.0389 </r>
       <r>    36.3413    -0.1545    56.0000 </r>
       <r>    36.5935     2.3363    56.5892 </r>
       <r>    36.8457     6.1071    58.1295 </r>
       <r>    37.0979     3.8918    59.1111 </r>
       <r>    37.3501     1.4609    59.4796 </r>
       <r>    37.6024     9.1107    61.7774 </r>
       <r>    37.8546     3.5344    62.6688 </r>
       <r>    38.1068     3.5644    63.5678 </r>
       <r>    38.3590    -0.0486    63.5556 </r>
       <r>    38.6112     5.8140    65.0219 </r>
       <r>    38.8634     2.1561    65.5657 </r>
       <r>    39.1157    -0.0673    65.5488 </r>
       <r>    39.3679     4.5810    66.7042 </r>
       <r>    39.6201     0.4387    66.8148 </r>
       <r>    39.8723     0.0000    66.8148 </r>
       <r>    40.1245    -0.0000    66.8148 </r>
       <r>    40.3767    -0.0000    66.8148 </r>
       <r>    40.6289     3.5257    67.7040 </r>
       <r>    40.8812     1.6913    68.1306 </r>
       <r>    41.1334     3.5938    69.0370 </r>
       <r>    41.3856    -0.0001    69.0370 </r>
       <r>    41.6378     3.5656    69.9363 </r>
       <r>    41.8900     4.5036    71.0722 </r>
       <r>    42.1422     4.2663    72.1482 </r>
       <r>    42.3945    -0.0004    72.1481 </r>
       <r>    42.6467     4.7601    73.3487 </r>
       <r>    42.8989     0.5245    73.4810 </r>
       <r>    43.1511     5.3959    74.8419 </r>
       <r>    43.4033     2.2420    75.4074 </r>
       <r>    43.6555     0.3293    75.4904 </r>
       <r>    43.9077     4.3699    76.5926 </r>
       <r>    44.1600     0.6244    76.7501 </r>
       <r>    44.4122     0.2437    76.8116 </r>
       <r>    44.6644     3.5341    77.7029 </r>
       <r>    44.9166     6.4452    79.3285 </r>
       <r>    45.1688     4.5766    80.4828 </r>
       <r>    45.4210     0.4159    80.5877 </r>
       <r>    45.6733     4.5371    81.7320 </r>
       <r>    45.9255    -0.1121    81.7037 </r>
       <r>    46.1777    -0.0223    81.6981 </r>
       <r>    46.4299     4.1138    82.7356 </r>
       <r>    46.6821     0.9018    82.9630 </r>
       <r>    46.9343    -0.0003    82.9630 </r>
       <r>    47.1865    -0.0000    82.9630 </r>
       <r>    47.4388     2.3941    83.5668 </r>
       <r>    47.6910     1.1302    83.8519 </r>
       <r>    47.9432     3.6368    84.7691 </r>
       <r>    48.1954    -0.1125    84.7407 </r>
       <r>    48.4476    -0.0000    84.7407 </r>
       <r>    48.6998     2.3648    85.3372 </r>
       <r>    48.9521     1.1595    85.6296 </r>
       <r>    49.2043     5.2374    86.9506 </r>
       <r>    49.4565     0.0491    86.9630 </r>
       <r>    49.7087    -0.0000    86.9630 </r>
       <r>    49.9609    -0.0635    86.9470 </r>
       <r>    50.2131     5.0566    88.2223 </r>
       <r>    50.4653     0.8650    88.4404 </r>
       <r>    50.7176     9.7081    90.8890 </r>
       <r>    50.9698    -0.0000    90.8889 </r>
       <r>    51.2220     3.4818    91.7671 </r>
       <r>    51.4742     8.2604    93.8505 </r>
       <r>    51.7264     1.7679    94.2964 </r>
       <r>    51.9786     0.2231    94.3526 </r>
       <r>    52.2309     0.6499    94.5165 </r>
       <r>    52.4831     2.4120    95.1249 </r>
       <r>    52.7353     5.9425    96.6237 </r>
       <r>    52.9875    -0.1232    96.5926 </r>
       <r>    53.2397     5.9989    98.1056 </r>
       <r>    53.4919     1.0492    98.3702 </r>
       <r>    53.7442     6.5456   100.0211 </r>
       <r>    53.9964     3.4405   100.8889 </r>
       <r>    54.2486     2.1670   101.4355 </r>
       <r>    54.5008     1.9447   101.9259 </r>
       <r>    54.7530    -0.0002   101.9259 </r>
       <r>    55.0052     3.5550   102.8225 </r>
       <r>    55.2574     0.8957   103.0484 </r>
       <r>    55.5097     2.5982   103.7037 </r>
       <r>    55.7619    -0.0000   103.7037 </r>
       <r>    56.0141    -0.0443   103.6925 </r>
       <r>    56.2663     7.0989   105.4830 </r>
       <r>    56.5185    -0.0774   105.4634 </r>
       <r>    56.7707     2.4211   106.0741 </r>
       <r>    57.0230    -0.0593   106.0591 </r>
       <r>    57.2752     4.7821   107.2652 </r>
       <r>    57.5274    -0.0236   107.2593 </r>
       <r>    57.7796    -0.0496   107.2467 </r>
       <r>    58.0318     5.3399   108.5935 </r>
       <r>    58.2840    -0.0652   108.5771 </r>
       <r>    58.5362    10.1054   111.1258 </r>
       <r>    58.7885     1.7040   111.5556 </r>
       <r>    59.0407     0.0000   111.5556 </r>
       <r>    59.2929    -0.0000   111.5556 </r>
       <r>    59.5451    -0.0000   111.5556 </r>
       <r>    59.7973    -0.0232   111.5497 </r>
       <r>    60.0495     1.7854   112.0000 </r>
       <r>    60.3018     0.0000   112.0000 </r>
       <r>    60.5540     0.0000   112.0000 </r>
       <r>    60.8062     0.0000   112.0000 </r>
       <r>    61.0584     0.0000   112.0000 </r>
       <r>    61.3106     0.0000   112.0000 </r>
       <r>    61.5628     0.0000   112.0000 </r>
       <r>    61.8150     0.0000   112.0000 </r>
       <r>    62.0673     0.0000   112.0000 </r>
       <r>    62.3195     0.0000   112.0000 </r>
       <r>    62.5717     0.0000   112.0000 </r>
       <r>    62.8239     0.0000   112.0000 </r>
       <r>    63.0761     0.0000   112.0000 </r>
       <r>    63.3283     0.0000   112.0000 </r>
      </set>
     </set>
    </array>
   </total>
  </dos>
 </calculation>
 <structure name="finalpos" >
  <crystal>
   <varray name="basis" >
    <v>       0.00000000       2.81650000       2.81650000 </v>
    <v>       2.81650000       0.00000000       2.81650000 </v>
    <v>       2.81650000       2.81650000       0.00000000 </v>
   </varray>
   <i name="volume">     44.68474278 </i>
   <varray name="rec_basis" >
    <v>      -0.17752530       0.17752530       0.17752530 </v>
    <v>       0.17752530      -0.17752530       0.17752530 </v>
    <v>       0.17752530       0.17752530      -0.17752530 </v>
   </varray>
  </crystal>
  <varray name="positions" >
   <v>       0.00000000       0.00000000       0.00000000 </v>
   <v>       0.25000000       0.25000000       0.25000000 </v>
  </varray>
 </structure>
</modeling>
