 running on   56 total cores
 distrk:  each k-point on   56 cores,    1 groups
 distr:  one band on    1 cores,   56 groups
 using from now: INCAR     
 vasp.5.4.4.18Apr17-6-g9f103f2a35 (build Nov 08 2017 12:56:59) complex          
  
 POSCAR found type information on POSCAR  Ge
 POSCAR found :  1 types and       2 ions
 scaLAPACK will be used

 ----------------------------------------------------------------------------- 
|                                                                             |
|           W    W    AA    RRRRR   N    N  II  N    N   GGGG   !!!           |
|           W    W   A  A   R    R  NN   N  II  NN   N  G    G  !!!           |
|           W    W  A    A  R    R  N N  N  II  N N  N  G       !!!           |
|           W WW W  AAAAAA  RRRRR   N  N N  II  N  N N  G  GGG   !            |
|           WW  WW  A    A  R   R   N   NN  II  N   NN  G    G                |
|           W    W  A    A  R    R  N    N  II  N    N   GGGG   !!!           |
|                                                                             |
|      For optimal performance we recommend to set                            |
|        NCORE= 4 - approx SQRT( number of cores)                             |
|      NCORE specifies how many cores store one orbital (NPAR=cpu/NCORE).     |
|      This setting can  greatly improve the performance of VASP for DFT.     |
|      The default,   NCORE=1            might be grossly inefficient         |
|      on modern multi-core architectures or massively parallel machines.     |
|      Do your own testing !!!!                                               |
|      Unfortunately you need to use the default for GW and RPA calculations. |
|      (for HF NCORE is supported but not extensively tested yet)             |
|                                                                             |
 ----------------------------------------------------------------------------- 

 LDA part: xc-table for Pade appr. of Perdew
 POSCAR, INCAR and KPOINTS ok, starting setup
 FFT: planning ...
 WAVECAR not read
 entering main loop
       N       E                     dE             d eps       ncg     rms          ort
DAV:   1    -0.136252395867E+01   -0.13625E+01   -0.49483E+03   224   0.137E+02
DAV:   2    -0.824550710166E+01   -0.68830E+01   -0.68609E+01   224   0.125E+01
DAV:   3    -0.827771515936E+01   -0.32208E-01   -0.32205E-01   224   0.118E+00
DAV:   4    -0.827795624829E+01   -0.24109E-03   -0.24109E-03   224   0.936E-02
DAV:   5    -0.827795674720E+01   -0.49891E-06   -0.49899E-06   224   0.466E-03
 gam= 0.000 g(H,U,f)=  0.763E-02 0.360E-01-0.805E-05 ort(H,U,f) = 0.000E+00 0.000E+00 0.000E+00
SDA:   6    -0.810613886106E+01    0.17182E+00   -0.17462E-01   224   0.437E-01 0.000E+00
 gam= 0.382 g(H,U,f)=  0.249E-02 0.225E-01-0.765E-05 ort(H,U,f) = 0.442E-02 0.285E-01-0.105E-04
DMP:   7    -0.812166718720E+01   -0.15528E-01   -0.15025E-01   224   0.250E-01 0.329E-01
 gam= 0.382 g(H,U,f)=  0.282E-03 0.108E-01-0.391E-06 ort(H,U,f) = 0.134E-02 0.231E-01-0.102E-05
DMP:   8    -0.813384779646E+01   -0.12181E-01   -0.81554E-02   224   0.111E-01 0.244E-01
 gam= 0.382 g(H,U,f)=  0.667E-04 0.424E-02-0.451E-07 ort(H,U,f) =-0.119E-03 0.123E-01-0.195E-06
DMP:   9    -0.814035087631E+01   -0.65031E-02   -0.35762E-02   224   0.430E-02 0.121E-01
 gam= 0.382 g(H,U,f)=  0.142E-03 0.141E-02-0.616E-08 ort(H,U,f) =-0.922E-04 0.511E-02-0.631E-07
DMP:  10    -0.814335431921E+01   -0.30034E-02   -0.13857E-02   224   0.155E-02 0.501E-02
 gam= 0.382 g(H,U,f)=  0.974E-04 0.401E-03-0.141E-08 ort(H,U,f) = 0.743E-04 0.176E-02 0.132E-07
DMP:  11    -0.814441172870E+01   -0.10574E-02   -0.47906E-03   224   0.499E-03 0.183E-02
 gam= 0.382 g(H,U,f)=  0.311E-04 0.102E-03-0.636E-08 ort(H,U,f) = 0.648E-04 0.506E-03 0.766E-08
DMP:  12    -0.814476446009E+01   -0.35273E-03   -0.14059E-03   224   0.133E-03 0.571E-03
 gam= 0.382 g(H,U,f)=  0.508E-05 0.278E-04-0.771E-08 ort(H,U,f) = 0.165E-04 0.125E-03-0.376E-08
DMP:  13    -0.814486242794E+01   -0.97968E-04   -0.34760E-04   224   0.329E-04 0.141E-03
 final diagonalization
   1 F= -.81448624E+01 E0= -.81448994E+01  d E =0.110778E-03
 writing wavefunctions
