<?xml version="1.0" encoding="ISO-8859-1"?>
<modeling>
 <generator>
  <i name="program" type="string">vasp </i>
  <i name="version" type="string">5.4.4.18Apr17-6-g9f103f2a35  </i>
  <i name="subversion" type="string">(build Nov 08 2017 12:56:59) complex            parallel </i>
  <i name="platform" type="string">LinuxIFC </i>
  <i name="date" type="string">2020 03 19 </i>
  <i name="time" type="string">20:29:08 </i>
 </generator>
 <incar>
  <i type="int" name="ISTART">     0</i>
  <i type="string" name="PREC">normal</i>
  <i type="int" name="ICHARG">     2</i>
  <i name="ENCUT">    450.00000000</i>
  <i name="SIGMA">      0.10000000</i>
  <v type="int" name="KPOINT_BSE">    -1     0     0     0</v>
  <i type="string" name="GGA"> PE</i>
 </incar>
 <structure name="primitive_cell" >
  <crystal>
   <varray name="basis" >
    <v>       0.00000000       2.81650000       2.81650000 </v>
    <v>       2.81650000       0.00000000       2.81650000 </v>
    <v>       2.81650000       2.81650000       0.00000000 </v>
   </varray>
   <i name="volume">     44.68474278 </i>
   <varray name="rec_basis" >
    <v>      -0.17752530       0.17752530       0.17752530 </v>
    <v>       0.17752530      -0.17752530       0.17752530 </v>
    <v>       0.17752530       0.17752530      -0.17752530 </v>
   </varray>
  </crystal>
  <varray name="positions" >
   <v>       0.00000000       0.00000000       0.00000000 </v>
   <v>       0.25000000       0.25000000       0.25000000 </v>
  </varray>
 </structure>
 <varray name="primitive_index" >
  <v type="int" >        1 </v>
  <v type="int" >        2 </v>
 </varray>
 <kpoints>
  <generation param="Gamma">
   <v type="int" name="divisions">       5        5        5 </v>
   <v name="usershift">      0.00000000       0.00000000       0.00000000 </v>
   <v name="genvec1">      0.20000000       0.00000000       0.00000000 </v>
   <v name="genvec2">      0.00000000       0.20000000       0.00000000 </v>
   <v name="genvec3">      0.00000000       0.00000000       0.20000000 </v>
   <v name="shift">      0.00000000       0.00000000       0.00000000 </v>
  </generation>
  <varray name="kpointlist" >
   <v>       0.00000000       0.00000000       0.00000000 </v>
   <v>       0.20000000       0.00000000       0.00000000 </v>
   <v>       0.40000000       0.00000000       0.00000000 </v>
   <v>       0.20000000       0.20000000       0.00000000 </v>
   <v>       0.40000000       0.20000000       0.00000000 </v>
   <v>      -0.40000000       0.20000000       0.00000000 </v>
   <v>      -0.20000000       0.20000000       0.00000000 </v>
   <v>       0.40000000       0.40000000       0.00000000 </v>
   <v>      -0.40000000       0.40000000       0.00000000 </v>
   <v>      -0.40000000       0.40000000       0.20000000 </v>
  </varray>
  <varray name="weights" >
   <v>       0.00800000 </v>
   <v>       0.06400000 </v>
   <v>       0.06400000 </v>
   <v>       0.04800000 </v>
   <v>       0.19200000 </v>
   <v>       0.19200000 </v>
   <v>       0.09600000 </v>
   <v>       0.04800000 </v>
   <v>       0.09600000 </v>
   <v>       0.19200000 </v>
  </varray>
 </kpoints>
 <parameters>
  <separator name="general" >
   <i type="string" name="SYSTEM">unknown system</i>
   <i type="logical" name="LCOMPAT"> F  </i>
  </separator>
  <separator name="electronic" >
   <i type="string" name="PREC">normal</i>
   <i name="ENMAX">    450.00000000</i>
   <i name="ENAUG">    385.84300000</i>
   <i name="EDIFF">      0.00010000</i>
   <i type="int" name="IALGO">    38</i>
   <i type="int" name="IWAVPR">    10</i>
   <i type="int" name="NBANDS">    56</i>
   <i name="NELECT">      8.00000000</i>
   <i type="int" name="TURBO">     0</i>
   <i type="int" name="IRESTART">     0</i>
   <i type="int" name="NREBOOT">     0</i>
   <i type="int" name="NMIN">     0</i>
   <i name="EREF">      0.00000000</i>
   <separator name="electronic smearing" >
    <i type="int" name="ISMEAR">     1</i>
    <i name="SIGMA">      0.10000000</i>
    <i name="KSPACING">      0.50000000</i>
    <i type="logical" name="KGAMMA"> T  </i>
   </separator>
   <separator name="electronic projectors" >
    <i type="logical" name="LREAL"> F  </i>
    <v name="ROPT">      0.00000000</v>
    <i type="int" name="LMAXPAW">  -100</i>
    <i type="int" name="LMAXMIX">     2</i>
    <i type="logical" name="NLSPLINE"> F  </i>
   </separator>
   <separator name="electronic startup" >
    <i type="int" name="ISTART">     0</i>
    <i type="int" name="ICHARG">     2</i>
    <i type="int" name="INIWAV">     1</i>
   </separator>
   <separator name="electronic spin" >
    <i type="int" name="ISPIN">     1</i>
    <i type="logical" name="LNONCOLLINEAR"> F  </i>
    <v name="MAGMOM">      1.00000000      1.00000000</v>
    <i name="NUPDOWN">     -1.00000000</i>
    <i type="logical" name="LSORBIT"> F  </i>
    <v name="SAXIS">      0.00000000      0.00000000      1.00000000</v>
    <i type="logical" name="LSPIRAL"> F  </i>
    <v name="QSPIRAL">      0.00000000      0.00000000      0.00000000</v>
    <i type="logical" name="LZEROZ"> F  </i>
   </separator>
   <separator name="electronic exchange-correlation" >
    <i type="logical" name="LASPH"> F  </i>
    <i type="logical" name="LMETAGGA"> F  </i>
   </separator>
   <separator name="electronic convergence" >
    <i type="int" name="NELM">    60</i>
    <i type="int" name="NELMDL">    -5</i>
    <i type="int" name="NELMIN">     2</i>
    <i name="ENINI">    450.00000000</i>
    <separator name="electronic convergence detail" >
     <i type="logical" name="LDIAG"> T  </i>
     <i type="logical" name="LSUBROT"> F  </i>
     <i name="WEIMIN">      0.00000000</i>
     <i name="EBREAK">      0.00000045</i>
     <i name="DEPER">      0.30000000</i>
     <i type="int" name="NRMM">     4</i>
     <i name="TIME">      0.40000000</i>
    </separator>
   </separator>
   <separator name="electronic mixer" >
    <i name="AMIX">      0.40000000</i>
    <i name="BMIX">      1.00000000</i>
    <i name="AMIN">      0.10000000</i>
    <i name="AMIX_MAG">      1.60000000</i>
    <i name="BMIX_MAG">      1.00000000</i>
    <separator name="electronic mixer details" >
     <i type="int" name="IMIX">     4</i>
     <i type="logical" name="MIXFIRST"> F  </i>
     <i type="int" name="MAXMIX">   -45</i>
     <i name="WC">    100.00000000</i>
     <i type="int" name="INIMIX">     1</i>
     <i type="int" name="MIXPRE">     1</i>
     <i type="int" name="MREMOVE">     5</i>
    </separator>
   </separator>
   <separator name="electronic dipolcorrection" >
    <i type="logical" name="LDIPOL"> F  </i>
    <i type="logical" name="LMONO"> F  </i>
    <i type="int" name="IDIPOL">     0</i>
    <i name="EPSILON">      1.00000000</i>
    <v name="DIPOL">   -100.00000000   -100.00000000   -100.00000000</v>
    <i name="EFIELD">      0.00000000</i>
   </separator>
  </separator>
  <separator name="grids" >
   <i type="int" name="NGX">    24</i>
   <i type="int" name="NGY">    24</i>
   <i type="int" name="NGZ">    24</i>
   <i type="int" name="NGXF">    48</i>
   <i type="int" name="NGYF">    48</i>
   <i type="int" name="NGZF">    48</i>
   <i type="logical" name="ADDGRID"> F  </i>
  </separator>
  <separator name="ionic" >
   <i type="int" name="NSW">     0</i>
   <i type="int" name="IBRION">    -1</i>
   <i type="int" name="MDALGO">     0</i>
   <i type="int" name="ISIF">     2</i>
   <i name="PSTRESS">      0.00000000</i>
   <i name="EDIFFG">      0.00100000</i>
   <i type="int" name="NFREE">     0</i>
   <i name="POTIM">      0.50000000</i>
   <i name="SMASS">     -3.00000000</i>
   <i name="SCALEE">      1.00000000</i>
  </separator>
  <separator name="ionic md" >
   <i name="TEBEG">      0.00010000</i>
   <i name="TEEND">      0.00010000</i>
   <i type="int" name="NBLOCK">     1</i>
   <i type="int" name="KBLOCK">     1</i>
   <i type="int" name="NPACO">   256</i>
   <i name="APACO">     16.00000000</i>
  </separator>
  <separator name="symmetry" >
   <i type="int" name="ISYM">     2</i>
   <i name="SYMPREC">      0.00001000</i>
  </separator>
  <separator name="dos" >
   <i type="int" name="LORBIT">     0</i>
   <v name="RWIGS">     -1.00000000</v>
   <i type="int" name="NEDOS">   301</i>
   <i name="EMIN">     10.00000000</i>
   <i name="EMAX">    -10.00000000</i>
   <i name="EFERMI">      0.00000000</i>
  </separator>
  <separator name="writing" >
   <i type="int" name="NWRITE">     2</i>
   <i type="logical" name="LWAVE"> T  </i>
   <i type="logical" name="LDOWNSAMPLE"> F  </i>
   <i type="logical" name="LCHARG"> T  </i>
   <i type="logical" name="LPARD"> F  </i>
   <i type="logical" name="LVTOT"> F  </i>
   <i type="logical" name="LVHAR"> F  </i>
   <i type="logical" name="LELF"> F  </i>
   <i type="logical" name="LOPTICS"> F  </i>
   <v name="STM">      0.00000000      0.00000000      0.00000000      0.00000000      0.00000000      0.00000000      0.00000000</v>
  </separator>
  <separator name="performance" >
   <i type="int" name="NPAR">    56</i>
   <i type="int" name="NSIM">     4</i>
   <i type="int" name="NBLK">    -1</i>
   <i type="logical" name="LPLANE"> T  </i>
   <i type="logical" name="LSCALAPACK"> T  </i>
   <i type="logical" name="LSCAAWARE"> T  </i>
   <i type="logical" name="LSCALU"> F  </i>
   <i type="logical" name="LASYNC"> F  </i>
   <i type="logical" name="LORBITALREAL"> F  </i>
  </separator>
  <separator name="miscellaneous" >
   <i type="int" name="IDIOT">     3</i>
   <i type="int" name="ISPECIAL">     0</i>
   <i type="logical" name="LMUSIC"> F  </i>
   <v name="POMASS">     72.61000000</v>
   <v name="DARWINR">      0.00000000</v>
   <v name="DARWINV">      1.00000000</v>
   <i type="logical" name="LCORR"> T  </i>
  </separator>
  <i type="logical" name="GGA_COMPAT"> T  </i>
  <i type="logical" name="LBERRY"> F  </i>
  <i type="int" name="ICORELEVEL">     0</i>
  <i type="logical" name="LDAU"> F  </i>
  <i type="int" name="I_CONSTRAINED_M">     0</i>
  <separator name="electronic exchange-correlation" >
   <i type="string" name="GGA">PE</i>
   <i type="int" name="VOSKOWN">     0</i>
   <i type="logical" name="LHFCALC"> F  </i>
   <i type="string" name="PRECFOCK"></i>
   <i type="logical" name="LSYMGRAD"> F  </i>
   <i type="logical" name="LHFONE"> F  </i>
   <i type="logical" name="LRHFCALC"> F  </i>
   <i type="logical" name="LTHOMAS"> F  </i>
   <i type="logical" name="LMODELHF"> F  </i>
   <i name="ENCUT4O">     -1.00000000</i>
   <i type="int" name="EXXOEP">     0</i>
   <i type="int" name="FOURORBIT">     0</i>
   <i name="AEXX">      0.00000000</i>
   <i name="HFALPHA">      0.00000000</i>
   <i name="MCALPHA">      0.00000000</i>
   <i name="ALDAX">      1.00000000</i>
   <i name="AGGAX">      1.00000000</i>
   <i name="ALDAC">      1.00000000</i>
   <i name="AGGAC">      1.00000000</i>
   <i type="int" name="NKREDX">     1</i>
   <i type="int" name="NKREDY">     1</i>
   <i type="int" name="NKREDZ">     1</i>
   <i type="logical" name="SHIFTRED"> F  </i>
   <i type="logical" name="ODDONLY"> F  </i>
   <i type="logical" name="EVENONLY"> F  </i>
   <i type="int" name="LMAXFOCK">     0</i>
   <i type="int" name="NMAXFOCKAE">     0</i>
   <i type="logical" name="LFOCKAEDFT"> F  </i>
   <i name="HFSCREEN">      0.00000000</i>
   <i name="HFSCREENC">      0.00000000</i>
   <i type="int" name="NBANDSGWLOW">     0</i>
  </separator>
  <separator name="vdW DFT" >
   <i type="logical" name="LUSE_VDW"> F  </i>
   <i name="Zab_VDW">     -0.84910000</i>
   <i name="PARAM1">      0.12340000</i>
   <i name="PARAM2">      1.00000000</i>
   <i name="PARAM3">      0.00000000</i>
  </separator>
  <separator name="model GW" >
   <i type="int" name="MODEL_GW">     0</i>
   <i name="MODEL_EPS0">     13.40542284</i>
   <i name="MODEL_ALPHA">      1.00000000</i>
  </separator>
  <separator name="linear response parameters" >
   <i type="logical" name="LEPSILON"> F  </i>
   <i type="logical" name="LRPA"> F  </i>
   <i type="logical" name="LNABLA"> F  </i>
   <i type="logical" name="LVEL"> F  </i>
   <i type="int" name="KINTER">     0</i>
   <i name="CSHIFT">      0.10000000</i>
   <i name="OMEGAMAX">     -1.00000000</i>
   <i name="DEG_THRESHOLD">      0.00200000</i>
   <i name="RTIME">     -0.10000000</i>
   <i name="WPLASMAI">      0.00000000</i>
   <v name="DFIELD">      0.00000000      0.00000000      0.00000000</v>
   <v name="WPLASMA">      0.00000000      0.00000000      0.00000000      0.00000000      0.00000000      0.00000000      0.00000000      0.00000000      0.00000000</v>
  </separator>
  <separator name="orbital magnetization" >
   <i type="logical" name="NUCIND"> F  </i>
   <v name="MAGPOS">      0.00000000      0.00000000      0.00000000</v>
   <i type="logical" name="LNICSALL"> T  </i>
   <i type="logical" name="ORBITALMAG"> F  </i>
   <i type="logical" name="LMAGBLOCH"> F  </i>
   <i type="logical" name="LCHIMAG"> F  </i>
   <i type="logical" name="LGAUGE"> T  </i>
   <i type="int" name="MAGATOM">     0</i>
   <v name="MAGDIPOL">      0.00000000      0.00000000      0.00000000</v>
   <v name="AVECCONST">      0.00000000      0.00000000      0.00000000</v>
  </separator>
  <separator name="response functions" >
   <i type="logical" name="LADDER"> F  </i>
   <i type="logical" name="LRPAFORCE"> F  </i>
   <i type="logical" name="LFXC"> F  </i>
   <i type="logical" name="LHARTREE"> T  </i>
   <i type="int" name="IBSE">     0</i>
   <v type="int" name="KPOINT">    -1     0     0     0</v>
   <i type="logical" name="LTCTE"> F  </i>
   <i type="logical" name="LTETE"> F  </i>
   <i type="logical" name="LTRIPLET"> F  </i>
   <i type="logical" name="LFXCEPS"> F  </i>
   <i type="logical" name="LFXHEG"> F  </i>
   <i type="int" name="NATURALO">     2</i>
   <i type="logical" name="L2ORDER"> F  </i>
   <i type="logical" name="LMP2LT"> F  </i>
   <i type="logical" name="LUSEW"> F  </i>
   <i name="ENCUTGW">     -2.00000000</i>
   <i name="ENCUTGWSOFT">     -2.00000000</i>
   <i name="ENCUTLF">     -1.00000000</i>
   <i type="int" name="LMAXMP2">    -1</i>
   <i name="SCISSOR">      0.00000000</i>
   <i type="int" name="NOMEGA">     0</i>
   <i type="int" name="NOMEGAR">     0</i>
   <i type="int" name="NBANDSGW">    -1</i>
   <i type="int" name="NBANDSO">    -1</i>
   <i type="int" name="NBANDSV">    -1</i>
   <i type="int" name="NELM">     1</i>
   <i type="int" name="NELMHF">     1</i>
   <i type="int" name="DIM">     3</i>
   <i type="int" name="ANTIRES">     0</i>
   <i name="OMEGAMAX">    -30.00000000</i>
   <i name="OMEGAMIN">    -30.00000000</i>
   <i name="OMEGATL">   -200.00000000</i>
   <i type="int" name="OMEGAGRID">   140</i>
   <i name="CSHIFT">     -0.10000000</i>
   <i type="logical" name="SELFENERGY"> F  </i>
   <i type="logical" name="LSPECTRAL"> F  </i>
   <i type="logical" name="LSPECTRALGW"> F  </i>
   <i type="logical" name="LSINGLES"> F  </i>
   <i type="logical" name="LFERMIGW"> F  </i>
   <i type="logical" name="ODDONLYGW"> F  </i>
   <i type="logical" name="EVENONLYGW"> F  </i>
   <i type="int" name="NKREDLFX">     1</i>
   <i type="int" name="NKREDLFY">     1</i>
   <i type="int" name="NKREDLFZ">     1</i>
   <i type="int" name="MAXMEM">  2800</i>
   <i type="int" name="TELESCOPE">     0</i>
   <i type="int" name="TAUPAR">     1</i>
   <i type="int" name="OMEGAPAR">    -1</i>
   <i name="LAMBDA">      1.00000000</i>
  </separator>
  <separator name="External order field" >
   <i name="OFIELD_KAPPA">      0.00000000</i>
   <v name="OFIELD_K">      0.00000000      0.00000000      0.00000000</v>
   <i name="OFIELD_Q6_NEAR">      0.00000000</i>
   <i name="OFIELD_Q6_FAR">      0.00000000</i>
   <i name="OFIELD_A">      0.00000000</i>
  </separator>
 </parameters>
 <atominfo>
  <atoms>       2 </atoms>
  <types>       1 </types>
  <array name="atoms" >
   <dimension dim="1">ion</dimension>
   <field type="string">element</field>
   <field type="int">atomtype</field>
   <set>
    <rc><c>Ge</c><c>   1</c></rc>
    <rc><c>Ge</c><c>   1</c></rc>
   </set>
  </array>
  <array name="atomtypes" >
   <dimension dim="1">type</dimension>
   <field type="int">atomspertype</field>
   <field type="string">element</field>
   <field>mass</field>
   <field>valence</field>
   <field type="string">pseudopotential</field>
   <set>
    <rc><c>   2</c><c>Ge</c><c>     72.61000000</c><c>      4.00000000</c><c>  PAW_PBE Ge 05Jan2001                  </c></rc>
   </set>
  </array>
 </atominfo>
 <structure name="initialpos" >
  <crystal>
   <varray name="basis" >
    <v>       0.00000000       2.81650000       2.81650000 </v>
    <v>       2.81650000       0.00000000       2.81650000 </v>
    <v>       2.81650000       2.81650000       0.00000000 </v>
   </varray>
   <i name="volume">     44.68474278 </i>
   <varray name="rec_basis" >
    <v>      -0.17752530       0.17752530       0.17752530 </v>
    <v>       0.17752530      -0.17752530       0.17752530 </v>
    <v>       0.17752530       0.17752530      -0.17752530 </v>
   </varray>
  </crystal>
  <varray name="positions" >
   <v>       0.00000000       0.00000000       0.00000000 </v>
   <v>       0.25000000       0.25000000       0.25000000 </v>
  </varray>
 </structure>
 <calculation>
  <scstep>
   <time name="dav">    0.39    0.39</time>
   <time name="total">    0.40    0.42</time>
   <energy>
    <i name="alphaZ">     17.10940282 </i>
    <i name="ewald">   -220.32663596 </i>
    <i name="hartreedc">    -12.42928696 </i>
    <i name="XCdc">    -14.98288157 </i>
    <i name="pawpsdc">    176.29039040 </i>
    <i name="pawaedc">   -147.31525009 </i>
    <i name="eentropy">     -0.00107168 </i>
    <i name="bandstr">    -12.91110134 </i>
    <i name="atom">    209.99145059 </i>
    <i name="e_fr_energy">     -4.57498380 </i>
    <i name="e_wo_entrp">     -4.57391212 </i>
    <i name="e_0_energy">     -4.57462657 </i>
   </energy>
  </scstep>
  <scstep>
   <time name="dav">    0.70    0.70</time>
   <time name="total">    0.70    0.70</time>
   <energy>
    <i name="e_fr_energy">     -8.92518342 </i>
    <i name="e_wo_entrp">     -8.92535674 </i>
    <i name="e_0_energy">     -8.92524119 </i>
   </energy>
  </scstep>
  <scstep>
   <time name="dav">    0.34    0.35</time>
   <time name="total">    0.34    0.35</time>
   <energy>
    <i name="e_fr_energy">     -8.92761547 </i>
    <i name="e_wo_entrp">     -8.92778876 </i>
    <i name="e_0_energy">     -8.92767323 </i>
   </energy>
  </scstep>
  <scstep>
   <time name="dav">    0.99    0.99</time>
   <time name="total">    0.99    0.99</time>
   <energy>
    <i name="e_fr_energy">     -8.92761559 </i>
    <i name="e_wo_entrp">     -8.92778887 </i>
    <i name="e_0_energy">     -8.92767335 </i>
   </energy>
  </scstep>
  <scstep>
   <time name="dav">    0.35    0.35</time>
   <time name="total">    0.36    0.37</time>
   <energy>
    <i name="e_fr_energy">     -8.92761559 </i>
    <i name="e_wo_entrp">     -8.92778887 </i>
    <i name="e_0_energy">     -8.92767335 </i>
   </energy>
  </scstep>
  <scstep>
   <time name="dav">    0.71    0.71</time>
   <time name="total">    0.73    0.74</time>
   <energy>
    <i name="e_fr_energy">     -8.85339756 </i>
    <i name="e_wo_entrp">     -8.85364910 </i>
    <i name="e_0_energy">     -8.85348141 </i>
   </energy>
  </scstep>
  <scstep>
   <time name="dav">    0.67    0.67</time>
   <time name="total">    0.69    0.69</time>
   <energy>
    <i name="e_fr_energy">     -8.82077059 </i>
    <i name="e_wo_entrp">     -8.82140134 </i>
    <i name="e_0_energy">     -8.82098084 </i>
   </energy>
  </scstep>
  <scstep>
   <time name="dav">    0.73    0.73</time>
   <time name="total">    0.75    0.75</time>
   <energy>
    <i name="e_fr_energy">     -8.82205162 </i>
    <i name="e_wo_entrp">     -8.82254310 </i>
    <i name="e_0_energy">     -8.82221544 </i>
   </energy>
  </scstep>
  <scstep>
   <time name="dav">    0.83    0.83</time>
   <time name="total">    0.84    0.84</time>
   <energy>
    <i name="e_fr_energy">     -8.82226236 </i>
    <i name="e_wo_entrp">     -8.82272325 </i>
    <i name="e_0_energy">     -8.82241599 </i>
   </energy>
  </scstep>
  <scstep>
   <time name="dav">    0.56    0.56</time>
   <time name="total">    0.57    0.57</time>
   <energy>
    <i name="alphaZ">     17.10940282 </i>
    <i name="ewald">   -220.32663596 </i>
    <i name="hartreedc">    -15.58447789 </i>
    <i name="XCdc">    -14.35134530 </i>
    <i name="pawpsdc">    472.38399950 </i>
    <i name="pawaedc">   -443.76911353 </i>
    <i name="eentropy">      0.00046151 </i>
    <i name="bandstr">    -14.27601601 </i>
    <i name="atom">    209.99145059 </i>
    <i name="e_fr_energy">     -8.82227427 </i>
    <i name="e_wo_entrp">     -8.82273577 </i>
    <i name="e_0_energy">     -8.82242810 </i>
   </energy>
  </scstep>
  <structure>
   <crystal>
    <varray name="basis" >
     <v>       0.00000000       2.81650000       2.81650000 </v>
     <v>       2.81650000       0.00000000       2.81650000 </v>
     <v>       2.81650000       2.81650000       0.00000000 </v>
    </varray>
    <i name="volume">     44.68474278 </i>
    <varray name="rec_basis" >
     <v>      -0.17752530       0.17752530       0.17752530 </v>
     <v>       0.17752530      -0.17752530       0.17752530 </v>
     <v>       0.17752530       0.17752530      -0.17752530 </v>
    </varray>
   </crystal>
   <varray name="positions" >
    <v>       0.00000000       0.00000000       0.00000000 </v>
    <v>       0.25000000       0.25000000       0.25000000 </v>
   </varray>
  </structure>
  <varray name="forces" >
   <v>      -0.00000000      -0.00000000      -0.00000000 </v>
   <v>       0.00000000       0.00000000       0.00000000 </v>
  </varray>
  <varray name="stress" >
   <v>      54.85495408      -0.00000000      -0.00000000 </v>
   <v>       0.00000000      54.85495408       0.00000000 </v>
   <v>      -0.00000000      -0.00000000      54.85495408 </v>
  </varray>
  <energy>
   <i name="e_fr_energy">     -8.82227427 </i>
   <i name="e_wo_entrp">     -8.82242810 </i>
   <i name="e_0_energy">      0.00046151 </i>
  </energy>
  <time name="totalsc">    6.69    7.03</time>
  <eigenvalues>
   <array>
    <dimension dim="1">band</dimension>
    <dimension dim="2">kpoint</dimension>
    <dimension dim="3">spin</dimension>
    <field>eigene</field>
    <field>occ</field>
    <set>
     <set comment="spin 1">
      <set comment="kpoint 1">
       <r>   -8.9769    1.0000 </r>
       <r>    3.9094    1.0187 </r>
       <r>    3.9094    1.0187 </r>
       <r>    3.9094    1.0187 </r>
       <r>    4.0908   -0.0053 </r>
       <r>    6.4336   -0.0000 </r>
       <r>    6.4336   -0.0000 </r>
       <r>    6.4336   -0.0000 </r>
       <r>   10.3491    0.0000 </r>
       <r>   13.1868    0.0000 </r>
       <r>   13.1868    0.0000 </r>
       <r>   14.6357    0.0000 </r>
       <r>   14.6357    0.0000 </r>
       <r>   14.6357    0.0000 </r>
       <r>   17.7688    0.0000 </r>
       <r>   28.2550    0.0000 </r>
       <r>   28.2550    0.0000 </r>
       <r>   28.2550    0.0000 </r>
       <r>   29.0849    0.0000 </r>
       <r>   29.0849    0.0000 </r>
       <r>   29.0849    0.0000 </r>
       <r>   29.4628    0.0000 </r>
       <r>   29.4628    0.0000 </r>
       <r>   30.1588    0.0000 </r>
       <r>   30.1588    0.0000 </r>
       <r>   30.1588    0.0000 </r>
       <r>   38.6354    0.0000 </r>
       <r>   39.0999    0.0000 </r>
       <r>   39.0999    0.0000 </r>
       <r>   39.0999    0.0000 </r>
       <r>   41.9362    0.0000 </r>
       <r>   41.9362    0.0000 </r>
       <r>   42.5014    0.0000 </r>
       <r>   42.5014    0.0000 </r>
       <r>   43.4432    0.0000 </r>
       <r>   43.6706    0.0000 </r>
       <r>   43.6706    0.0000 </r>
       <r>   43.6706    0.0000 </r>
       <r>   44.0816    0.0000 </r>
       <r>   44.0816    0.0000 </r>
       <r>   44.0816    0.0000 </r>
       <r>   44.8947    0.0000 </r>
       <r>   44.8947    0.0000 </r>
       <r>   44.8947    0.0000 </r>
       <r>   45.3814    0.0000 </r>
       <r>   45.3814    0.0000 </r>
       <r>   45.3814    0.0000 </r>
       <r>   46.5069    0.0000 </r>
       <r>   46.5069    0.0000 </r>
       <r>   46.5069    0.0000 </r>
       <r>   49.9341    0.0000 </r>
       <r>   51.9236    0.0000 </r>
       <r>   51.9236    0.0000 </r>
       <r>   51.9236    0.0000 </r>
       <r>   52.1975    0.0000 </r>
       <r>   52.1975    0.0000 </r>
      </set>
      <set comment="kpoint 2">
       <r>   -8.4906    1.0000 </r>
       <r>    0.0963    1.0000 </r>
       <r>    3.2186    1.0000 </r>
       <r>    3.2186    1.0000 </r>
       <r>    4.8040   -0.0000 </r>
       <r>    7.3188    0.0000 </r>
       <r>    7.3188    0.0000 </r>
       <r>    8.7110    0.0000 </r>
       <r>   11.9521    0.0000 </r>
       <r>   12.0427    0.0000 </r>
       <r>   12.0427    0.0000 </r>
       <r>   14.0536    0.0000 </r>
       <r>   17.6560    0.0000 </r>
       <r>   17.6560    0.0000 </r>
       <r>   20.7115    0.0000 </r>
       <r>   23.1195    0.0000 </r>
       <r>   23.1195    0.0000 </r>
       <r>   23.5744    0.0000 </r>
       <r>   29.1724    0.0000 </r>
       <r>   29.1724    0.0000 </r>
       <r>   29.7626    0.0000 </r>
       <r>   29.7626    0.0000 </r>
       <r>   30.5667    0.0000 </r>
       <r>   32.2102    0.0000 </r>
       <r>   33.6261    0.0000 </r>
       <r>   35.3197    0.0000 </r>
       <r>   35.3197    0.0000 </r>
       <r>   36.5994    0.0000 </r>
       <r>   36.5994    0.0000 </r>
       <r>   37.5923    0.0000 </r>
       <r>   37.5923    0.0000 </r>
       <r>   39.3599    0.0000 </r>
       <r>   39.3599    0.0000 </r>
       <r>   40.0513    0.0000 </r>
       <r>   40.8265    0.0000 </r>
       <r>   40.9543    0.0000 </r>
       <r>   42.8134    0.0000 </r>
       <r>   42.8134    0.0000 </r>
       <r>   43.5934    0.0000 </r>
       <r>   44.2144    0.0000 </r>
       <r>   44.7042    0.0000 </r>
       <r>   44.7042    0.0000 </r>
       <r>   45.3460    0.0000 </r>
       <r>   47.8138    0.0000 </r>
       <r>   47.8138    0.0000 </r>
       <r>   49.1888    0.0000 </r>
       <r>   49.1888    0.0000 </r>
       <r>   49.4728    0.0000 </r>
       <r>   50.0802    0.0000 </r>
       <r>   50.0802    0.0000 </r>
       <r>   51.7343    0.0000 </r>
       <r>   51.8414    0.0000 </r>
       <r>   54.2387    0.0000 </r>
       <r>   54.2387    0.0000 </r>
       <r>   56.2152    0.0000 </r>
       <r>   56.3725    0.0000 </r>
      </set>
      <set comment="kpoint 3">
       <r>   -7.2431    1.0000 </r>
       <r>   -3.1299    1.0000 </r>
       <r>    2.5598    1.0000 </r>
       <r>    2.5598    1.0000 </r>
       <r>    4.2110   -0.0064 </r>
       <r>    7.6497    0.0000 </r>
       <r>    7.6497    0.0000 </r>
       <r>   11.1099    0.0000 </r>
       <r>   12.7543    0.0000 </r>
       <r>   13.6706    0.0000 </r>
       <r>   13.6706    0.0000 </r>
       <r>   16.6165    0.0000 </r>
       <r>   17.8243    0.0000 </r>
       <r>   17.8243    0.0000 </r>
       <r>   20.6560    0.0000 </r>
       <r>   22.6039    0.0000 </r>
       <r>   22.6039    0.0000 </r>
       <r>   25.9060    0.0000 </r>
       <r>   26.9439    0.0000 </r>
       <r>   28.3299    0.0000 </r>
       <r>   28.3299    0.0000 </r>
       <r>   30.1948    0.0000 </r>
       <r>   30.1948    0.0000 </r>
       <r>   30.8474    0.0000 </r>
       <r>   30.8474    0.0000 </r>
       <r>   31.4702    0.0000 </r>
       <r>   32.3993    0.0000 </r>
       <r>   35.4271    0.0000 </r>
       <r>   35.4271    0.0000 </r>
       <r>   35.8521    0.0000 </r>
       <r>   35.8521    0.0000 </r>
       <r>   35.8786    0.0000 </r>
       <r>   37.7308    0.0000 </r>
       <r>   38.2469    0.0000 </r>
       <r>   42.5065    0.0000 </r>
       <r>   42.5065    0.0000 </r>
       <r>   42.8746    0.0000 </r>
       <r>   43.4552    0.0000 </r>
       <r>   43.4552    0.0000 </r>
       <r>   44.7765    0.0000 </r>
       <r>   45.4606    0.0000 </r>
       <r>   45.4606    0.0000 </r>
       <r>   48.1309    0.0000 </r>
       <r>   50.5028    0.0000 </r>
       <r>   50.5028    0.0000 </r>
       <r>   52.3525    0.0000 </r>
       <r>   52.3525    0.0000 </r>
       <r>   53.5664    0.0000 </r>
       <r>   54.2466    0.0000 </r>
       <r>   55.3257    0.0000 </r>
       <r>   55.3257    0.0000 </r>
       <r>   55.5261    0.0000 </r>
       <r>   55.5261    0.0000 </r>
       <r>   56.7270    0.0000 </r>
       <r>   56.7270    0.0000 </r>
       <r>   58.1879    0.0000 </r>
      </set>
      <set comment="kpoint 4">
       <r>   -8.3209    1.0000 </r>
       <r>    0.1330    1.0000 </r>
       <r>    2.2605    1.0000 </r>
       <r>    2.2605    1.0000 </r>
       <r>    5.2062   -0.0000 </r>
       <r>    6.8811    0.0000 </r>
       <r>    8.8876    0.0000 </r>
       <r>    8.8876    0.0000 </r>
       <r>   10.6214    0.0000 </r>
       <r>   13.0275    0.0000 </r>
       <r>   13.8490    0.0000 </r>
       <r>   15.9782    0.0000 </r>
       <r>   15.9782    0.0000 </r>
       <r>   16.7661    0.0000 </r>
       <r>   22.5106    0.0000 </r>
       <r>   22.7166    0.0000 </r>
       <r>   22.7166    0.0000 </r>
       <r>   23.8538    0.0000 </r>
       <r>   24.6169    0.0000 </r>
       <r>   28.8776    0.0000 </r>
       <r>   30.2257    0.0000 </r>
       <r>   30.2257    0.0000 </r>
       <r>   31.4139    0.0000 </r>
       <r>   33.7735    0.0000 </r>
       <r>   33.7735    0.0000 </r>
       <r>   34.4011    0.0000 </r>
       <r>   34.9246    0.0000 </r>
       <r>   36.0657    0.0000 </r>
       <r>   36.0657    0.0000 </r>
       <r>   36.5005    0.0000 </r>
       <r>   37.3009    0.0000 </r>
       <r>   39.7498    0.0000 </r>
       <r>   39.7498    0.0000 </r>
       <r>   40.2925    0.0000 </r>
       <r>   41.5050    0.0000 </r>
       <r>   41.6876    0.0000 </r>
       <r>   41.6876    0.0000 </r>
       <r>   41.9380    0.0000 </r>
       <r>   42.4005    0.0000 </r>
       <r>   45.5797    0.0000 </r>
       <r>   45.5797    0.0000 </r>
       <r>   45.6993    0.0000 </r>
       <r>   45.7692    0.0000 </r>
       <r>   47.9859    0.0000 </r>
       <r>   48.2561    0.0000 </r>
       <r>   48.2561    0.0000 </r>
       <r>   49.3521    0.0000 </r>
       <r>   49.3521    0.0000 </r>
       <r>   49.6681    0.0000 </r>
       <r>   49.8015    0.0000 </r>
       <r>   51.0151    0.0000 </r>
       <r>   53.0463    0.0000 </r>
       <r>   54.6005    0.0000 </r>
       <r>   54.6005    0.0000 </r>
       <r>   54.8254    0.0000 </r>
       <r>   57.5135    0.0000 </r>
      </set>
      <set comment="kpoint 5">
       <r>   -7.2550    1.0000 </r>
       <r>   -2.4266    1.0000 </r>
       <r>    0.9534    1.0000 </r>
       <r>    1.6832    1.0000 </r>
       <r>    5.5104   -0.0000 </r>
       <r>    7.4648    0.0000 </r>
       <r>    8.8972    0.0000 </r>
       <r>    9.6132    0.0000 </r>
       <r>   13.7438    0.0000 </r>
       <r>   14.0865    0.0000 </r>
       <r>   14.9424    0.0000 </r>
       <r>   16.4727    0.0000 </r>
       <r>   17.6365    0.0000 </r>
       <r>   19.1753    0.0000 </r>
       <r>   19.6210    0.0000 </r>
       <r>   21.3791    0.0000 </r>
       <r>   23.5276    0.0000 </r>
       <r>   24.1545    0.0000 </r>
       <r>   25.7029    0.0000 </r>
       <r>   26.6265    0.0000 </r>
       <r>   27.4615    0.0000 </r>
       <r>   30.1801    0.0000 </r>
       <r>   30.3666    0.0000 </r>
       <r>   30.6696    0.0000 </r>
       <r>   31.1847    0.0000 </r>
       <r>   32.7830    0.0000 </r>
       <r>   33.5789    0.0000 </r>
       <r>   33.8233    0.0000 </r>
       <r>   36.0962    0.0000 </r>
       <r>   36.9930    0.0000 </r>
       <r>   37.2226    0.0000 </r>
       <r>   37.5342    0.0000 </r>
       <r>   38.6455    0.0000 </r>
       <r>   39.5728    0.0000 </r>
       <r>   39.9052    0.0000 </r>
       <r>   41.1606    0.0000 </r>
       <r>   44.2517    0.0000 </r>
       <r>   44.3643    0.0000 </r>
       <r>   44.9737    0.0000 </r>
       <r>   45.2953    0.0000 </r>
       <r>   45.9810    0.0000 </r>
       <r>   46.0884    0.0000 </r>
       <r>   47.4189    0.0000 </r>
       <r>   48.1896    0.0000 </r>
       <r>   48.3857    0.0000 </r>
       <r>   48.8983    0.0000 </r>
       <r>   49.8441    0.0000 </r>
       <r>   52.6965    0.0000 </r>
       <r>   52.9615    0.0000 </r>
       <r>   53.6602    0.0000 </r>
       <r>   55.1677    0.0000 </r>
       <r>   56.2474    0.0000 </r>
       <r>   57.3716    0.0000 </r>
       <r>   57.7008    0.0000 </r>
       <r>   58.8962    0.0000 </r>
       <r>   60.0757    0.0000 </r>
      </set>
      <set comment="kpoint 6">
       <r>   -6.4765    1.0000 </r>
       <r>   -3.6910    1.0000 </r>
       <r>    0.1383    1.0000 </r>
       <r>    1.9566    1.0000 </r>
       <r>    5.5972   -0.0000 </r>
       <r>    8.1858    0.0000 </r>
       <r>    8.9764    0.0000 </r>
       <r>   11.2489    0.0000 </r>
       <r>   12.1677    0.0000 </r>
       <r>   13.1711    0.0000 </r>
       <r>   14.7128    0.0000 </r>
       <r>   17.7163    0.0000 </r>
       <r>   18.7449    0.0000 </r>
       <r>   19.4635    0.0000 </r>
       <r>   20.6526    0.0000 </r>
       <r>   23.7078    0.0000 </r>
       <r>   24.1689    0.0000 </r>
       <r>   24.3173    0.0000 </r>
       <r>   25.1599    0.0000 </r>
       <r>   25.6573    0.0000 </r>
       <r>   27.2879    0.0000 </r>
       <r>   28.2936    0.0000 </r>
       <r>   29.3970    0.0000 </r>
       <r>   29.4578    0.0000 </r>
       <r>   30.1362    0.0000 </r>
       <r>   31.5917    0.0000 </r>
       <r>   31.6713    0.0000 </r>
       <r>   33.8385    0.0000 </r>
       <r>   34.3354    0.0000 </r>
       <r>   36.2843    0.0000 </r>
       <r>   37.3880    0.0000 </r>
       <r>   37.5722    0.0000 </r>
       <r>   38.8327    0.0000 </r>
       <r>   39.0999    0.0000 </r>
       <r>   39.5924    0.0000 </r>
       <r>   42.8045    0.0000 </r>
       <r>   43.4451    0.0000 </r>
       <r>   43.7562    0.0000 </r>
       <r>   44.9227    0.0000 </r>
       <r>   46.7129    0.0000 </r>
       <r>   47.8977    0.0000 </r>
       <r>   48.8079    0.0000 </r>
       <r>   49.1251    0.0000 </r>
       <r>   49.9047    0.0000 </r>
       <r>   50.1191    0.0000 </r>
       <r>   50.6366    0.0000 </r>
       <r>   51.8352    0.0000 </r>
       <r>   52.5143    0.0000 </r>
       <r>   53.8764    0.0000 </r>
       <r>   54.0285    0.0000 </r>
       <r>   55.2754    0.0000 </r>
       <r>   55.8244    0.0000 </r>
       <r>   56.2114    0.0000 </r>
       <r>   56.3620    0.0000 </r>
       <r>   57.4814    0.0000 </r>
       <r>   57.9567    0.0000 </r>
      </set>
      <set comment="kpoint 7">
       <r>   -7.7125    1.0000 </r>
       <r>   -1.6084    1.0000 </r>
       <r>    0.7008    1.0000 </r>
       <r>    2.8859    1.0000 </r>
       <r>    5.9725   -0.0000 </r>
       <r>    7.8930    0.0000 </r>
       <r>    8.1858    0.0000 </r>
       <r>    9.0625    0.0000 </r>
       <r>   11.1313    0.0000 </r>
       <r>   13.8094    0.0000 </r>
       <r>   14.3210    0.0000 </r>
       <r>   16.1510    0.0000 </r>
       <r>   17.5019    0.0000 </r>
       <r>   18.3174    0.0000 </r>
       <r>   21.6081    0.0000 </r>
       <r>   22.5992    0.0000 </r>
       <r>   23.7797    0.0000 </r>
       <r>   23.9106    0.0000 </r>
       <r>   24.7093    0.0000 </r>
       <r>   25.9341    0.0000 </r>
       <r>   30.0522    0.0000 </r>
       <r>   30.2966    0.0000 </r>
       <r>   31.0463    0.0000 </r>
       <r>   31.5186    0.0000 </r>
       <r>   31.7043    0.0000 </r>
       <r>   32.0448    0.0000 </r>
       <r>   35.2683    0.0000 </r>
       <r>   35.4924    0.0000 </r>
       <r>   36.2228    0.0000 </r>
       <r>   37.0091    0.0000 </r>
       <r>   37.0211    0.0000 </r>
       <r>   38.3646    0.0000 </r>
       <r>   38.8878    0.0000 </r>
       <r>   39.1190    0.0000 </r>
       <r>   39.9226    0.0000 </r>
       <r>   40.3657    0.0000 </r>
       <r>   41.0286    0.0000 </r>
       <r>   42.3552    0.0000 </r>
       <r>   44.1340    0.0000 </r>
       <r>   45.4047    0.0000 </r>
       <r>   45.9837    0.0000 </r>
       <r>   46.1669    0.0000 </r>
       <r>   47.8665    0.0000 </r>
       <r>   49.0863    0.0000 </r>
       <r>   49.2099    0.0000 </r>
       <r>   49.7067    0.0000 </r>
       <r>   50.5037    0.0000 </r>
       <r>   51.0573    0.0000 </r>
       <r>   53.9984    0.0000 </r>
       <r>   54.0988    0.0000 </r>
       <r>   54.2702    0.0000 </r>
       <r>   55.2423    0.0000 </r>
       <r>   55.2601    0.0000 </r>
       <r>   56.3412    0.0000 </r>
       <r>   57.2043    0.0000 </r>
       <r>   57.9142    0.0000 </r>
      </set>
      <set comment="kpoint 8">
       <r>   -6.4095    1.0000 </r>
       <r>   -3.4563    1.0000 </r>
       <r>    0.9395    1.0000 </r>
       <r>    0.9395    1.0000 </r>
       <r>    4.4242   -0.0000 </r>
       <r>    5.2285   -0.0000 </r>
       <r>   12.4131    0.0000 </r>
       <r>   12.4131    0.0000 </r>
       <r>   13.7638    0.0000 </r>
       <r>   15.8420    0.0000 </r>
       <r>   16.5652    0.0000 </r>
       <r>   17.7128    0.0000 </r>
       <r>   17.7128    0.0000 </r>
       <r>   19.1786    0.0000 </r>
       <r>   20.0374    0.0000 </r>
       <r>   20.0374    0.0000 </r>
       <r>   20.2476    0.0000 </r>
       <r>   21.6073    0.0000 </r>
       <r>   26.0267    0.0000 </r>
       <r>   26.2201    0.0000 </r>
       <r>   26.2201    0.0000 </r>
       <r>   26.8840    0.0000 </r>
       <r>   29.3702    0.0000 </r>
       <r>   31.8054    0.0000 </r>
       <r>   31.8054    0.0000 </r>
       <r>   32.0097    0.0000 </r>
       <r>   32.2983    0.0000 </r>
       <r>   36.4277    0.0000 </r>
       <r>   36.4277    0.0000 </r>
       <r>   36.7502    0.0000 </r>
       <r>   38.7631    0.0000 </r>
       <r>   38.9899    0.0000 </r>
       <r>   39.7443    0.0000 </r>
       <r>   40.2618    0.0000 </r>
       <r>   40.2618    0.0000 </r>
       <r>   41.8587    0.0000 </r>
       <r>   42.2468    0.0000 </r>
       <r>   42.2468    0.0000 </r>
       <r>   43.0854    0.0000 </r>
       <r>   43.5427    0.0000 </r>
       <r>   44.9984    0.0000 </r>
       <r>   44.9984    0.0000 </r>
       <r>   46.1459    0.0000 </r>
       <r>   50.8860    0.0000 </r>
       <r>   50.8860    0.0000 </r>
       <r>   51.3120    0.0000 </r>
       <r>   53.5163    0.0000 </r>
       <r>   53.8138    0.0000 </r>
       <r>   54.7991    0.0000 </r>
       <r>   55.2507    0.0000 </r>
       <r>   55.2507    0.0000 </r>
       <r>   55.5391    0.0000 </r>
       <r>   56.0456    0.0000 </r>
       <r>   57.0600    0.0000 </r>
       <r>   57.0600    0.0000 </r>
       <r>   59.2764    0.0000 </r>
      </set>
      <set comment="kpoint 9">
       <r>   -5.3236    1.0000 </r>
       <r>   -4.6582    1.0000 </r>
       <r>   -0.3059    1.0000 </r>
       <r>    1.0570    1.0000 </r>
       <r>    4.8867   -0.0000 </r>
       <r>    7.0100    0.0000 </r>
       <r>   11.7307    0.0000 </r>
       <r>   11.8813    0.0000 </r>
       <r>   12.8010    0.0000 </r>
       <r>   14.1594    0.0000 </r>
       <r>   17.2697    0.0000 </r>
       <r>   19.0289    0.0000 </r>
       <r>   19.0833    0.0000 </r>
       <r>   19.6730    0.0000 </r>
       <r>   20.1285    0.0000 </r>
       <r>   20.5442    0.0000 </r>
       <r>   23.6997    0.0000 </r>
       <r>   23.7726    0.0000 </r>
       <r>   23.9539    0.0000 </r>
       <r>   24.0789    0.0000 </r>
       <r>   25.6003    0.0000 </r>
       <r>   26.6619    0.0000 </r>
       <r>   27.3182    0.0000 </r>
       <r>   28.7811    0.0000 </r>
       <r>   32.1543    0.0000 </r>
       <r>   32.8014    0.0000 </r>
       <r>   32.8104    0.0000 </r>
       <r>   34.9266    0.0000 </r>
       <r>   36.2471    0.0000 </r>
       <r>   36.8087    0.0000 </r>
       <r>   36.9171    0.0000 </r>
       <r>   37.6475    0.0000 </r>
       <r>   37.8709    0.0000 </r>
       <r>   38.7286    0.0000 </r>
       <r>   40.5640    0.0000 </r>
       <r>   42.9608    0.0000 </r>
       <r>   43.2690    0.0000 </r>
       <r>   45.0141    0.0000 </r>
       <r>   45.0402    0.0000 </r>
       <r>   45.2220    0.0000 </r>
       <r>   46.7306    0.0000 </r>
       <r>   47.1345    0.0000 </r>
       <r>   49.4188    0.0000 </r>
       <r>   50.0808    0.0000 </r>
       <r>   50.4915    0.0000 </r>
       <r>   52.1370    0.0000 </r>
       <r>   52.7124    0.0000 </r>
       <r>   53.3626    0.0000 </r>
       <r>   53.6871    0.0000 </r>
       <r>   53.9252    0.0000 </r>
       <r>   54.7757    0.0000 </r>
       <r>   55.1284    0.0000 </r>
       <r>   55.2735    0.0000 </r>
       <r>   56.6618    0.0000 </r>
       <r>   57.6145    0.0000 </r>
       <r>   58.6899    0.0000 </r>
      </set>
      <set comment="kpoint 10">
       <r>   -6.0332    1.0000 </r>
       <r>   -3.8334    1.0000 </r>
       <r>   -0.2461    1.0000 </r>
       <r>    0.7387    1.0000 </r>
       <r>    7.2494    0.0000 </r>
       <r>    7.4919    0.0000 </r>
       <r>    8.2178    0.0000 </r>
       <r>   11.3535    0.0000 </r>
       <r>   12.9200    0.0000 </r>
       <r>   14.3103    0.0000 </r>
       <r>   17.1766    0.0000 </r>
       <r>   17.6214    0.0000 </r>
       <r>   18.3123    0.0000 </r>
       <r>   19.8786    0.0000 </r>
       <r>   20.0994    0.0000 </r>
       <r>   23.0299    0.0000 </r>
       <r>   23.4834    0.0000 </r>
       <r>   24.3433    0.0000 </r>
       <r>   24.5867    0.0000 </r>
       <r>   24.6898    0.0000 </r>
       <r>   25.8146    0.0000 </r>
       <r>   27.0811    0.0000 </r>
       <r>   29.2168    0.0000 </r>
       <r>   29.7265    0.0000 </r>
       <r>   31.1232    0.0000 </r>
       <r>   31.7408    0.0000 </r>
       <r>   32.1680    0.0000 </r>
       <r>   32.4765    0.0000 </r>
       <r>   33.0558    0.0000 </r>
       <r>   36.6901    0.0000 </r>
       <r>   37.7867    0.0000 </r>
       <r>   38.8563    0.0000 </r>
       <r>   38.8915    0.0000 </r>
       <r>   40.2254    0.0000 </r>
       <r>   42.9688    0.0000 </r>
       <r>   43.1248    0.0000 </r>
       <r>   43.7848    0.0000 </r>
       <r>   44.0908    0.0000 </r>
       <r>   45.0099    0.0000 </r>
       <r>   45.3670    0.0000 </r>
       <r>   45.7358    0.0000 </r>
       <r>   46.6171    0.0000 </r>
       <r>   48.1771    0.0000 </r>
       <r>   48.8189    0.0000 </r>
       <r>   50.6890    0.0000 </r>
       <r>   52.3409    0.0000 </r>
       <r>   52.5576    0.0000 </r>
       <r>   53.3065    0.0000 </r>
       <r>   53.3239    0.0000 </r>
       <r>   54.0849    0.0000 </r>
       <r>   54.1820    0.0000 </r>
       <r>   56.0978    0.0000 </r>
       <r>   57.1393    0.0000 </r>
       <r>   57.7380    0.0000 </r>
       <r>   57.7756    0.0000 </r>
       <r>   58.1476    0.0000 </r>
      </set>
     </set>
    </set>
   </array>
  </eigenvalues>
  <separator name="orbital magnetization" >
   <v name="MAGDIPOLOUT">      0.00000000      0.00000000      0.00000000</v>
  </separator>
  <dos>
   <i name="efermi">      4.00412411 </i>
   <total>
    <array>
     <dimension dim="1">gridpoints</dimension>
     <dimension dim="2">spin</dimension>
     <field>energy</field>
     <field>total</field>
     <field>integrated</field>
     <set>
      <set comment="spin 1">
       <r>   -12.4295     0.0000     0.0000 </r>
       <r>   -12.1763     0.0000     0.0000 </r>
       <r>   -11.9231     0.0000     0.0000 </r>
       <r>   -11.6699     0.0000     0.0000 </r>
       <r>   -11.4168     0.0000     0.0000 </r>
       <r>   -11.1636     0.0000     0.0000 </r>
       <r>   -10.9104     0.0000     0.0000 </r>
       <r>   -10.6572     0.0000     0.0000 </r>
       <r>   -10.4040     0.0000     0.0000 </r>
       <r>   -10.1508     0.0000     0.0000 </r>
       <r>    -9.8976    -0.0000    -0.0000 </r>
       <r>    -9.6444    -0.0000    -0.0000 </r>
       <r>    -9.3912    -0.0000    -0.0000 </r>
       <r>    -9.1380    -0.0014    -0.0004 </r>
       <r>    -8.8848     0.0656     0.0162 </r>
       <r>    -8.6316    -0.0168     0.0120 </r>
       <r>    -8.3784     0.5730     0.1570 </r>
       <r>    -8.1252     0.3311     0.2409 </r>
       <r>    -7.8721    -0.0211     0.2355 </r>
       <r>    -7.6189     0.7890     0.4353 </r>
       <r>    -7.3657    -0.0809     0.4148 </r>
       <r>    -7.1125     2.1542     0.9602 </r>
       <r>    -6.8593    -0.0642     0.9440 </r>
       <r>    -6.6061    -0.0561     0.9298 </r>
       <r>    -6.3529     1.9692     1.4284 </r>
       <r>    -6.0997     0.0630     1.4443 </r>
       <r>    -5.8465     1.4545     1.8126 </r>
       <r>    -5.5933    -0.0185     1.8079 </r>
       <r>    -5.3401     0.2751     1.8776 </r>
       <r>    -5.0869     0.4851     2.0004 </r>
       <r>    -4.8337    -0.0139     1.9969 </r>
       <r>    -4.5805     0.7584     2.1889 </r>
       <r>    -4.3274     0.0122     2.1920 </r>
       <r>    -4.0742    -0.0026     2.1913 </r>
       <r>    -3.8210     0.8665     2.4107 </r>
       <r>    -3.5678     2.2113     2.9706 </r>
       <r>    -3.3146     0.3425     3.0574 </r>
       <r>    -3.0614     0.4772     3.1782 </r>
       <r>    -2.8082     0.0229     3.1840 </r>
       <r>    -2.5550    -0.0530     3.1706 </r>
       <r>    -2.3018     1.6233     3.5816 </r>
       <r>    -2.0486    -0.0537     3.5680 </r>
       <r>    -1.7954    -0.0090     3.5657 </r>
       <r>    -1.5422     0.7263     3.7496 </r>
       <r>    -1.2890     0.0411     3.7600 </r>
       <r>    -1.0358    -0.0000     3.7600 </r>
       <r>    -0.7827    -0.0000     3.7600 </r>
       <r>    -0.5295    -0.0030     3.7592 </r>
       <r>    -0.2763     0.9533     4.0006 </r>
       <r>    -0.0231     1.2690     4.3219 </r>
       <r>     0.2301     2.5041     4.9559 </r>
       <r>     0.4833    -0.0518     4.9428 </r>
       <r>     0.7365     1.3155     5.2759 </r>
       <r>     0.9897     2.8562     5.9991 </r>
       <r>     1.2429     1.1507     6.2904 </r>
       <r>     1.4961    -0.0276     6.2835 </r>
       <r>     1.7493     1.4420     6.6486 </r>
       <r>     2.0025     1.3759     6.9969 </r>
       <r>     2.2557     0.5817     7.1442 </r>
       <r>     2.5089     0.5371     7.2802 </r>
       <r>     2.7620     0.8645     7.4991 </r>
       <r>     3.0152     0.7968     7.7008 </r>
       <r>     3.2684     0.8596     7.9185 </r>
       <r>     3.5216     0.1324     7.9520 </r>
       <r>     3.7748    -0.0064     7.9504 </r>
       <r>     4.0280     0.2002     8.0011 </r>
       <r>     4.2812     0.5336     8.1362 </r>
       <r>     4.5344     0.4223     8.2431 </r>
       <r>     4.7876     0.1533     8.2819 </r>
       <r>     5.0408     1.1067     8.5621 </r>
       <r>     5.2940     0.7242     8.7455 </r>
       <r>     5.5472     1.4190     9.1048 </r>
       <r>     5.8004     1.6378     9.5194 </r>
       <r>     6.0536     0.7549     9.7106 </r>
       <r>     6.3067    -0.0011     9.7103 </r>
       <r>     6.5599     0.2029     9.7617 </r>
       <r>     6.8131     0.0046     9.7629 </r>
       <r>     7.0663     1.0360    10.0252 </r>
       <r>     7.3195     1.9866    10.5282 </r>
       <r>     7.5727     3.7195    11.4699 </r>
       <r>     7.8259     1.0107    11.7258 </r>
       <r>     8.0791     0.5943    11.8763 </r>
       <r>     8.3323     4.0196    12.8940 </r>
       <r>     8.5855    -0.1365    12.8594 </r>
       <r>     8.8387     0.7240    13.0427 </r>
       <r>     9.0919     4.2222    14.1118 </r>
       <r>     9.3451     0.1267    14.1439 </r>
       <r>     9.5982     0.5689    14.2879 </r>
       <r>     9.8514     0.9512    14.5287 </r>
       <r>    10.1046    -0.0030    14.5280 </r>
       <r>    10.3578     0.0361    14.5371 </r>
       <r>    10.6110     0.1837    14.5836 </r>
       <r>    10.8642     0.2221    14.6399 </r>
       <r>    11.1174     0.5205    14.7717 </r>
       <r>    11.3706     3.2903    15.6047 </r>
       <r>    11.6238     0.4634    15.7221 </r>
       <r>    11.8770     1.1467    16.0124 </r>
       <r>    12.1302     2.2370    16.5788 </r>
       <r>    12.3834     1.3939    16.9317 </r>
       <r>    12.6366     0.5226    17.0641 </r>
       <r>    12.8898     1.6959    17.4934 </r>
       <r>    13.1429     1.9465    17.9863 </r>
       <r>    13.3961     1.1971    18.2894 </r>
       <r>    13.6493     0.2611    18.3555 </r>
       <r>    13.9025     3.7649    19.3087 </r>
       <r>    14.1557     2.2853    19.8873 </r>
       <r>    14.4089     2.8250    20.6026 </r>
       <r>    14.6621     0.2842    20.6746 </r>
       <r>    14.9153     1.8157    21.1343 </r>
       <r>    15.1685     1.0858    21.4092 </r>
       <r>    15.4217    -0.0048    21.4080 </r>
       <r>    15.6749    -0.0076    21.4061 </r>
       <r>    15.9281     0.4836    21.5285 </r>
       <r>    16.1813     1.2306    21.8401 </r>
       <r>    16.4345     0.4742    21.9602 </r>
       <r>    16.6876     2.1241    22.4980 </r>
       <r>    16.9408     0.3744    22.5928 </r>
       <r>    17.1940     0.9916    22.8438 </r>
       <r>    17.4472     1.3231    23.1788 </r>
       <r>    17.7004     5.3119    24.5238 </r>
       <r>    17.9536     2.8377    25.2423 </r>
       <r>    18.2068    -0.1109    25.2142 </r>
       <r>    18.4600     2.4118    25.8248 </r>
       <r>    18.7132     0.3071    25.9026 </r>
       <r>    18.9664     1.1636    26.1972 </r>
       <r>    19.2196     3.1061    26.9836 </r>
       <r>    19.4728     1.1133    27.2655 </r>
       <r>    19.7260     2.8830    27.9955 </r>
       <r>    19.9792     1.6285    28.4078 </r>
       <r>    20.2323     3.2240    29.2241 </r>
       <r>    20.4855     0.1826    29.2703 </r>
       <r>    20.7387     3.1320    30.0633 </r>
       <r>    20.9919     0.1292    30.0960 </r>
       <r>    21.2451    -0.0513    30.0830 </r>
       <r>    21.4983     1.5845    30.4842 </r>
       <r>    21.7515     1.1553    30.7767 </r>
       <r>    22.0047    -0.0345    30.7680 </r>
       <r>    22.2579    -0.0004    30.7679 </r>
       <r>    22.5111     0.1644    30.8095 </r>
       <r>    22.7643     2.6728    31.4863 </r>
       <r>    23.0175     0.6429    31.6491 </r>
       <r>    23.2707     1.9757    32.1493 </r>
       <r>    23.5239     1.9539    32.6440 </r>
       <r>    23.7770     4.5065    33.7850 </r>
       <r>    24.0302     2.7655    34.4852 </r>
       <r>    24.2834     4.3541    35.5876 </r>
       <r>    24.5366     2.6181    36.2505 </r>
       <r>    24.7898     4.0518    37.2764 </r>
       <r>    25.0430    -0.1020    37.2506 </r>
       <r>    25.2962     1.6196    37.6607 </r>
       <r>    25.5494    -0.0434    37.6497 </r>
       <r>    25.8026     4.4366    38.7730 </r>
       <r>    26.0558     2.4352    39.3896 </r>
       <r>    26.3090     0.8383    39.6018 </r>
       <r>    26.5622     0.0671    39.6188 </r>
       <r>    26.8154     2.2362    40.1850 </r>
       <r>    27.0686     1.4632    40.5555 </r>
       <r>    27.3217     2.4255    41.1696 </r>
       <r>    27.5749     2.3213    41.7573 </r>
       <r>    27.8281    -0.0526    41.7440 </r>
       <r>    28.0813    -0.0125    41.7408 </r>
       <r>    28.3345     1.9828    42.2429 </r>
       <r>    28.5877     0.7405    42.4304 </r>
       <r>    28.8409     0.7835    42.6287 </r>
       <r>    29.0941     0.4325    42.7382 </r>
       <r>    29.3473     2.9776    43.4921 </r>
       <r>    29.6005     3.1933    44.3006 </r>
       <r>    29.8537     2.6009    44.9592 </r>
       <r>    30.1069     1.0407    45.2227 </r>
       <r>    30.3601     6.1051    46.7684 </r>
       <r>    30.6133     1.3971    47.1222 </r>
       <r>    30.8664     2.1109    47.6566 </r>
       <r>    31.1196     1.8838    48.1336 </r>
       <r>    31.3728     2.3014    48.7163 </r>
       <r>    31.6260     2.9892    49.4731 </r>
       <r>    31.8792     4.6929    50.6613 </r>
       <r>    32.1324     1.7092    51.0941 </r>
       <r>    32.3856     2.7613    51.7933 </r>
       <r>    32.6388     1.7861    52.2455 </r>
       <r>    32.8920     3.0960    53.0294 </r>
       <r>    33.1452     1.5110    53.4120 </r>
       <r>    33.3984    -0.0387    53.4022 </r>
       <r>    33.6516     1.7782    53.8524 </r>
       <r>    33.9048     3.9934    54.8635 </r>
       <r>    34.1580     0.0412    54.8739 </r>
       <r>    34.4111     1.7297    55.3119 </r>
       <r>    34.6643     0.1895    55.3599 </r>
       <r>    34.9175     0.4891    55.4837 </r>
       <r>    35.1707     0.6042    55.6367 </r>
       <r>    35.4239     2.3751    56.2381 </r>
       <r>    35.6771     1.1986    56.5415 </r>
       <r>    35.9303     1.3943    56.8946 </r>
       <r>    36.1835     2.5992    57.5527 </r>
       <r>    36.4367     3.3304    58.3959 </r>
       <r>    36.6899     2.4327    59.0118 </r>
       <r>    36.9431     2.7009    59.6957 </r>
       <r>    37.1963     3.4103    60.5592 </r>
       <r>    37.4495     2.7842    61.2641 </r>
       <r>    37.7027     5.1515    62.5684 </r>
       <r>    37.9558     2.6525    63.2400 </r>
       <r>    38.2090     0.0524    63.2533 </r>
       <r>    38.4622     1.1777    63.5515 </r>
       <r>    38.7154     1.7317    63.9899 </r>
       <r>    38.9686     6.4118    65.6133 </r>
       <r>    39.2218     2.7776    66.3166 </r>
       <r>    39.4750     0.9082    66.5465 </r>
       <r>    39.7282     3.5266    67.4395 </r>
       <r>    39.9814     2.8973    68.1730 </r>
       <r>    40.2346     1.6827    68.5991 </r>
       <r>    40.4878     2.3593    69.1965 </r>
       <r>    40.7410     0.7168    69.3779 </r>
       <r>    40.9942     1.0583    69.6459 </r>
       <r>    41.2474     2.2310    70.2108 </r>
       <r>    41.5005     0.1555    70.2501 </r>
       <r>    41.7537     0.9125    70.4812 </r>
       <r>    42.0069     0.9314    70.7170 </r>
       <r>    42.2601     0.4476    70.8303 </r>
       <r>    42.5133     2.1307    71.3698 </r>
       <r>    42.7665     0.8894    71.5950 </r>
       <r>    43.0197     4.6364    72.7689 </r>
       <r>    43.2729     2.5556    73.4159 </r>
       <r>    43.5261     3.0420    74.1861 </r>
       <r>    43.7793     2.7181    74.8743 </r>
       <r>    44.0325     1.4137    75.2323 </r>
       <r>    44.2857     4.0484    76.2573 </r>
       <r>    44.5389     1.8311    76.7209 </r>
       <r>    44.7921     1.2397    77.0348 </r>
       <r>    45.0452     6.2977    78.6293 </r>
       <r>    45.2984     2.6288    79.2949 </r>
       <r>    45.5516     4.8545    80.5241 </r>
       <r>    45.8048     2.6248    81.1886 </r>
       <r>    46.0580     2.7602    81.8875 </r>
       <r>    46.3112     2.3744    82.4887 </r>
       <r>    46.5644     0.2548    82.5532 </r>
       <r>    46.8176     3.7531    83.5034 </r>
       <r>    47.0708    -0.0123    83.5003 </r>
       <r>    47.3240     0.6892    83.6748 </r>
       <r>    47.5772     1.5710    84.0726 </r>
       <r>    47.8304     0.8403    84.2854 </r>
       <r>    48.0836     2.8100    84.9968 </r>
       <r>    48.3368     4.5603    86.1515 </r>
       <r>    48.5899     1.2341    86.4639 </r>
       <r>    48.8431     2.3960    87.0706 </r>
       <r>    49.0963     2.9743    87.8236 </r>
       <r>    49.3495     3.6542    88.7489 </r>
       <r>    49.6027     1.6145    89.1576 </r>
       <r>    49.8559     2.5900    89.8134 </r>
       <r>    50.1091     3.9387    90.8107 </r>
       <r>    50.3623     1.2683    91.1318 </r>
       <r>    50.6155     3.2310    91.9498 </r>
       <r>    50.8687     2.6860    92.6299 </r>
       <r>    51.1219     1.5830    93.0307 </r>
       <r>    51.3751     0.3906    93.1296 </r>
       <r>    51.6283    -0.0022    93.1290 </r>
       <r>    51.8815     2.2778    93.7057 </r>
       <r>    52.1346     0.8268    93.9151 </r>
       <r>    52.3878     2.5272    94.5549 </r>
       <r>    52.6410     3.7902    95.5146 </r>
       <r>    52.8942     2.1327    96.0546 </r>
       <r>    53.1474     1.7720    96.5032 </r>
       <r>    53.4006     3.6466    97.4265 </r>
       <r>    53.6538     1.9200    97.9127 </r>
       <r>    53.9070     3.1093    98.6999 </r>
       <r>    54.1602     5.9664   100.2106 </r>
       <r>    54.4134     3.3841   101.0674 </r>
       <r>    54.6666     0.6256   101.2258 </r>
       <r>    54.9198     1.6411   101.6413 </r>
       <r>    55.1730     1.3767   101.9899 </r>
       <r>    55.4262     6.5105   103.6383 </r>
       <r>    55.6793     1.2956   103.9663 </r>
       <r>    55.9325     1.5265   104.3528 </r>
       <r>    56.1857     2.5508   104.9986 </r>
       <r>    56.4389     5.6430   106.4274 </r>
       <r>    56.6921     0.8088   106.6322 </r>
       <r>    56.9453     0.9418   106.8707 </r>
       <r>    57.1985     2.5252   107.5100 </r>
       <r>    57.4517     2.4520   108.1309 </r>
       <r>    57.7049     3.5023   109.0176 </r>
       <r>    57.9581     4.7295   110.2151 </r>
       <r>    58.2113     2.6275   110.8804 </r>
       <r>    58.4645     0.2491   110.9434 </r>
       <r>    58.7177     0.5296   111.0775 </r>
       <r>    58.9709     1.7101   111.5105 </r>
       <r>    59.2240     0.0819   111.5312 </r>
       <r>    59.4772     0.3377   111.6167 </r>
       <r>    59.7304    -0.0030   111.6160 </r>
       <r>    59.9836    -0.0225   111.6103 </r>
       <r>    60.2368     1.5733   112.0087 </r>
       <r>    60.4900    -0.0342   112.0000 </r>
       <r>    60.7432    -0.0000   112.0000 </r>
       <r>    60.9964     0.0000   112.0000 </r>
       <r>    61.2496     0.0000   112.0000 </r>
       <r>    61.5028     0.0000   112.0000 </r>
       <r>    61.7560     0.0000   112.0000 </r>
       <r>    62.0092     0.0000   112.0000 </r>
       <r>    62.2624     0.0000   112.0000 </r>
       <r>    62.5156     0.0000   112.0000 </r>
       <r>    62.7687     0.0000   112.0000 </r>
       <r>    63.0219     0.0000   112.0000 </r>
       <r>    63.2751     0.0000   112.0000 </r>
       <r>    63.5283     0.0000   112.0000 </r>
      </set>
     </set>
    </array>
   </total>
  </dos>
 </calculation>
 <structure name="finalpos" >
  <crystal>
   <varray name="basis" >
    <v>       0.00000000       2.81650000       2.81650000 </v>
    <v>       2.81650000       0.00000000       2.81650000 </v>
    <v>       2.81650000       2.81650000       0.00000000 </v>
   </varray>
   <i name="volume">     44.68474278 </i>
   <varray name="rec_basis" >
    <v>      -0.17752530       0.17752530       0.17752530 </v>
    <v>       0.17752530      -0.17752530       0.17752530 </v>
    <v>       0.17752530       0.17752530      -0.17752530 </v>
   </varray>
  </crystal>
  <varray name="positions" >
   <v>       0.00000000       0.00000000       0.00000000 </v>
   <v>       0.25000000       0.25000000       0.25000000 </v>
  </varray>
 </structure>
</modeling>
