unknown system                          
   1.00000000000000     
     0.000000    3.029200    3.029200
     3.029200    0.000000    3.029200
     3.029200    3.029200    0.000000
   In   As
     1     1
Direct
  0.000000  0.000000  0.000000
  0.250000  0.250000  0.250000
 
   36   36   36
 -4.6998     -4.1817     -2.7111     -.52336      2.0401      4.6009      6.8203      8.4618      9.4247      9.7411    
  9.5474      9.0415      8.4387      7.9271      7.5616      7.3038      7.1272      7.0215      6.9859      7.0215    
  7.1272      7.3038      7.5616      7.9271      8.4386      9.0415      9.5474      9.7411      9.4247      8.4618    
  6.8203      4.6009      2.0401     -.52337     -2.7111     -4.1817     -4.1817     -3.2641     -1.5510     0.72772    
  3.2662      5.7334      7.8339      9.3622      10.236      10.501      10.309      9.8719      9.4141      9.0828    
  8.8600      8.7087      8.6103      8.5603      8.5603      8.6103      8.7087      8.8600      9.0828      9.4141    
  9.8719      10.309      10.501      10.236      9.3622      7.8339      5.7334      3.2662     0.72772     -1.5510    
 -3.2641     -4.1817     -2.7111     -1.5510     0.24858      2.4871      4.8998      7.1961      9.1131      10.471    
  11.213      11.411      11.240      10.928      10.682      10.543      10.466      10.419      10.390      10.381    
  10.390      10.419      10.466      10.543      10.682      10.928      11.240      11.411      11.213      10.471    
  9.1131      7.1961      4.8998      2.4871     0.24858     -1.5510     -2.7111     -3.1110     -.52336     0.72772    
  2.4871      4.5879      6.7990      8.8592      10.535      11.680      12.275      12.432      12.352      12.259    
  12.262      12.317      12.380      12.426      12.449      12.449      12.426      12.380      12.317      12.262    
  12.259      12.352      12.432      12.275      11.680      10.535      8.8592      6.7990      4.5879      2.4871    
 0.72773     -.52336     -1.1694     -1.1694      2.0401      3.2662      4.8998      6.7990      8.7546      10.531    
  11.933      12.862      13.354      13.560      13.688      13.893      14.146      14.387      14.574      14.690    
  14.728      14.690      14.574      14.387      14.146      13.893      13.688      13.560      13.354      12.862    
  11.933      10.531      8.7546      6.7990      4.8998      3.2662      2.0401      1.2913      1.0408      1.2913    
  4.6009      5.7334      7.1961      8.8592      10.531      12.011      13.156      13.935      14.437      14.835    
  15.294      15.806      16.295      16.700      16.982      17.126      17.126      16.982      16.700      16.295    
  15.806      15.294      14.835      14.437      13.934      13.156      12.011      10.531      8.8592      7.1961    
  5.7334      4.6009      3.8518      3.4849      3.4849      3.8518      6.8203      7.8339      9.1131      10.535    
  11.933      13.156      14.133      14.898      15.580      16.326      17.141      17.938      18.633      19.164    
  19.493      19.604      19.493      19.164      18.633      17.938      17.141      16.326      15.580      14.898    
  14.133      13.156      11.933      10.535      9.1131      7.8339      6.8203      6.1223      5.7281      5.6024    
  5.7281      6.1223      8.4618      9.3622      10.471      11.680      12.862      13.935      14.898      15.838    
  16.873      18.009      19.149      20.190      21.042      21.635      21.932      21.932      21.635      21.042    
  20.190      19.149      18.009      16.874      15.838      14.898      13.934      12.862      11.680      10.471    
  9.3622      8.4618      7.8241      7.4401      7.2665      7.2665      7.4401      7.8241      9.4247      10.236    
  11.213      12.275      13.354      14.437      15.580      16.873      18.310      19.793      21.204      22.423    
  23.319      23.843      24.013      23.843      23.319      22.422      21.204      19.793      18.311      16.874    
  15.580      14.437      13.354      12.275      11.213      10.236      9.4247      8.8310      8.4566      8.2633    
  8.2054      8.2633      8.4566      8.8310      9.7411      10.501      11.411      12.432      13.560      14.835    
  16.326      18.009      19.793      21.556      23.149      24.377      25.162      25.532      25.532      25.161    
  24.376      23.149      21.556      19.793      18.009      16.326      14.835      13.560      12.432      11.411    
  10.501      9.7411      9.1656      8.7821      8.5646      8.4712      8.4712      8.5646      8.7821      9.1656    
  9.5474      10.309      11.240      12.352      13.688      15.294      17.141      19.149      21.204      23.149    
  24.736      25.825      26.432      26.624      26.432      25.825      24.735      23.149      21.204      19.149    
  17.141      15.294      13.688      12.352      11.240      10.309      9.5474      8.9599      8.5463      8.2888    
  8.1553      8.1149      8.1553      8.2888      8.5463      8.9599      9.0415      9.8719      10.928      12.259    
  13.893      15.806      17.938      20.190      22.423      24.377      25.825      26.727      27.147      27.147    
  26.727      25.825      24.376      22.422      20.190      17.938      15.806      13.893      12.259      10.928    
  9.8719      9.0415      8.4051      7.9417      7.6303      7.4452      7.3608      7.3608      7.4452      7.6303    
  7.9417      8.4051      8.4387      9.4141      10.682      12.262      14.146      16.295      18.633      21.042    
  23.319      25.162      26.432      27.147      27.374      27.147      26.432      25.161      23.319      21.042    
  18.633      16.295      14.146      12.262      10.682      9.4141      8.4386      7.7059      7.1690      6.7925    
  6.5477      6.4115      6.3680      6.4115      6.5477      6.7925      7.1690      7.7059      7.9271      9.0828    
  10.543      12.317      14.387      16.700      19.164      21.635      23.843      25.532      26.624      27.147    
  27.147      26.624      25.532      23.843      21.635      19.164      16.700      14.387      12.317      10.543    
  9.0828      7.9271      7.0484      6.4052      5.9480      5.6366      5.4432      5.3506      5.3506      5.4432    
  5.6366      5.9480      6.4052      7.0484      7.5616      8.8600      10.466      12.380      14.574      16.982    
  19.493      21.932      24.013      25.532      26.432      26.727      26.432      25.532      24.013      21.932    
  19.493      16.982      14.574      12.380      10.466      8.8600      7.5616      6.5485      5.7846      5.2278    
  4.8374      4.5804      4.4340      4.3864      4.4340      4.5804      4.8374      5.2278      5.7846      6.5485    
  7.3038      8.7087      10.419      12.426      14.690      17.126      19.604      21.932      23.843      25.161    
  25.825      25.825      25.161      23.843      21.932      19.604      17.126      14.690      12.426      10.419    
  8.7087      7.3038      6.1875      5.3276      4.6845      4.2183      3.8955      3.6919      3.5933      3.5933    
  3.6919      3.8955      4.2183      4.6845      5.3276      6.1874      7.1272      8.6103      10.390      12.449    
  14.728      17.126      19.493      21.635      23.319      24.376      24.735      24.376      23.319      21.635    
  19.493      17.126      14.728      12.449      10.390      8.6103      7.1272      5.9322      4.9977      4.2861    
  3.7584      3.3801      3.1256      2.9784      2.9301      2.9784      3.1256      3.3801      3.7584      4.2861    
  4.9977      5.9322      7.0215      8.5603      10.381      12.449      14.690      16.982      19.164      21.042    
  22.422      23.149      23.149      22.422      21.042      19.164      16.982      14.690      12.449      10.381    
  8.5603      7.0215      5.7653      4.7707      4.0032      3.4248      3.0005      2.7027      2.5129      2.4202    
  2.4202      2.5129      2.7027      3.0005      3.4248      4.0032      4.7707      5.7654      6.9859      8.5603    
  10.390      12.426      14.574      16.700      18.633      20.190      21.204      21.556      21.204      20.190    
  18.633      16.700      14.574      12.426      10.390      8.5603      6.9859      5.6818      4.6358      3.8192    
  3.1961      2.7315      2.3964      2.1698      2.0384      1.9952      2.0384      2.1698      2.3964      2.7315    
  3.1961      3.8192      4.6358      5.6818      7.0215      8.6103      10.419      12.380      14.387      16.295    
  17.938      19.149      19.793      19.793      19.149      17.938      16.295      14.387      12.380      10.419    
  8.6103      7.0215      5.6818      4.5909      3.7278      3.0613      2.5580      2.1881      1.9285      1.7632    
  1.6828      1.6828      1.7632      1.9285      2.1881      2.5580      3.0613      3.7278      4.5909      5.6818    
  7.1272      8.7087      10.466      12.317      14.146      15.806      17.141      18.009      18.311      18.009    
  17.141      15.806      14.146      12.317      10.466      8.7087      7.1272      5.7653      4.6358      3.7278    
  3.0167      2.4726      2.0666      1.7746      1.5783      1.4652      1.4283      1.4652      1.5783      1.7746    
  2.0666      2.4726      3.0167      3.7278      4.6358      5.7654      7.3038      8.8600      10.543      12.262    
  13.893      15.294      16.326      16.874      16.874      16.326      15.294      13.893      12.262      10.543    
  8.8600      7.3038      5.9322      4.7707      3.8192      3.0613      2.4726      2.0267      1.6997      1.4720    
  1.3286      1.2594      1.2594      1.3286      1.4720      1.6997      2.0267      2.4726      3.0613      3.8192    
  4.7707      5.9322      7.5616      9.0828      10.682      12.259      13.688      14.835      15.580      15.838    
  15.580      14.835      13.688      12.259      10.682      9.0828      7.5616      6.1875      4.9977      4.0032    
  3.1961      2.5580      2.0666      1.6997      1.4373      1.2628      1.1636      1.1314      1.1636      1.2628    
  1.4373      1.6997      2.0666      2.5580      3.1961      4.0032      4.9977      6.1874      7.9271      9.4141    
  10.928      12.352      13.560      14.437      14.898      14.898      14.437      13.560      12.352      10.928    
  9.4141      7.9271      6.5485      5.3276      4.2861      3.4248      2.7315      2.1881      1.7746      1.4720    
  1.2628      1.1326      1.0704      1.0704      1.1326      1.2628      1.4720      1.7746      2.1881      2.7315    
  3.4248      4.2861      5.3276      6.5485      8.4386      9.8719      11.240      12.432      13.354      13.934    
  14.133      13.934      13.354      12.432      11.240      9.8719      8.4386      7.0484      5.7846      4.6845    
  3.7584      3.0005      2.3964      1.9285      1.5783      1.3286      1.1636      1.0704      1.0403      1.0704    
  1.1636      1.3286      1.5783      1.9285      2.3964      3.0005      3.7584      4.6845      5.7846      7.0484    
  9.0415      10.309      11.411      12.275      12.862      13.156      13.156      12.862      12.275      11.411    
  10.309      9.0415      7.7059      6.4052      5.2278      4.2183      3.3801      2.7027      2.1698      1.7632    
  1.4652      1.2594      1.1314      1.0704      1.0704      1.1314      1.2594      1.4652      1.7632      2.1698    
  2.7027      3.3801      4.2183      5.2278      6.4052      7.7059      9.5474      10.501      11.213      11.680    
  11.933      12.011      11.933      11.680      11.213      10.501      9.5474      8.4051      7.1690      5.9480    
  4.8374      3.8955      3.1256      2.5129      2.0384      1.6828      1.4283      1.2594      1.1636      1.1326    
  1.1636      1.2594      1.4283      1.6828      2.0384      2.5129      3.1256      3.8955      4.8374      5.9480    
  7.1690      8.4051      9.7411      10.236      10.471      10.535      10.531      10.531      10.535      10.471    
  10.236      9.7411      8.9599      7.9417      6.7925      5.6366      4.5804      3.6919      2.9784      2.4202    
  1.9952      1.6828      1.4652      1.3286      1.2628      1.2628      1.3286      1.4652      1.6828      1.9952    
  2.4202      2.9784      3.6919      4.5804      5.6366      6.7925      7.9417      8.9599      9.4247      9.3622    
  9.1131      8.8592      8.7546      8.8592      9.1131      9.3622      9.4247      9.1656      8.5463      7.6303    
  6.5477      5.4432      4.4340      3.5933      2.9301      2.4202      2.0384      1.7632      1.5783      1.4720    
  1.4373      1.4720      1.5783      1.7632      2.0384      2.4202      2.9302      3.5933      4.4340      5.4432    
  6.5477      7.6303      8.5463      9.1656      8.4618      7.8339      7.1961      6.7990      6.7990      7.1961    
  7.8339      8.4618      8.8310      8.7821      8.2888      7.4452      6.4115      5.3506      4.3864      3.5933    
  2.9784      2.5129      2.1698      1.9285      1.7746      1.6997      1.6997      1.7746      1.9285      2.1698    
  2.5129      2.9784      3.5933      4.3864      5.3506      6.4115      7.4452      8.2888      8.7821      8.8310    
  6.8203      5.7334      4.8998      4.5879      4.8998      5.7334      6.8203      7.8241      8.4566      8.5646    
  8.1553      7.3608      6.3680      5.3506      4.4340      3.6919      3.1256      2.7027      2.3964      2.1881    
  2.0666      2.0267      2.0666      2.1881      2.3964      2.7027      3.1256      3.6919      4.4340      5.3506    
  6.3680      7.3608      8.1553      8.5646      8.4566      7.8241      4.6009      3.2662      2.4871      2.4871    
  3.2662      4.6009      6.1223      7.4401      8.2633      8.4712      8.1149      7.3608      6.4115      5.4432    
  4.5804      3.8955      3.3801      3.0005      2.7315      2.5580      2.4726      2.4726      2.5580      2.7315    
  3.0005      3.3801      3.8955      4.5804      5.4432      6.4115      7.3608      8.1149      8.4712      8.2633    
  7.4401      6.1223      2.0401     0.72772     0.24858     0.72773      2.0401      3.8518      5.7281      7.2665    
  8.2054      8.4712      8.1553      7.4452      6.5477      5.6366      4.8374      4.2183      3.7584      3.4248    
  3.1961      3.0613      3.0167      3.0613      3.1961      3.4248      3.7584      4.2183      4.8374      5.6366    
  6.5477      7.4452      8.1553      8.4712      8.2054      7.2665      5.7281      3.8518     -.52337     -1.5510    
 -1.5510     -.52336      1.2913      3.4849      5.6024      7.2665      8.2633      8.5646      8.2888      7.6303    
  6.7925      5.9480      5.2278      4.6845      4.2861      4.0032      3.8192      3.7278      3.7278      3.8192    
  4.0032      4.2861      4.6845      5.2278      5.9480      6.7925      7.6303      8.2888      8.5646      8.2633    
  7.2665      5.6024      3.4849      1.2913     -2.7111     -3.2641     -2.7111     -1.1694      1.0408      3.4849    
  5.7281      7.4401      8.4566      8.7821      8.5463      7.9417      7.1690      6.4052      5.7846      5.3276    
  4.9977      4.7707      4.6358      4.5909      4.6358      4.7707      4.9977      5.3276      5.7846      6.4052    
  7.1690      7.9417      8.5463      8.7821      8.4566      7.4401      5.7281      3.4849      1.0408     -1.1694    
 -4.1817     -4.1817     -3.1110     -1.1694      1.2913      3.8518      6.1223      7.8241      8.8310      9.1656    
  8.9599      8.4051      7.7059      7.0484      6.5485      6.1874      5.9322      5.7654      5.6818      5.6818    
  5.7654      5.9322      6.1874      6.5485      7.0484      7.7059      8.4051      8.9599      9.1656      8.8310    
  7.8241      6.1223      3.8518      1.2913     -1.1694     -3.1110     -4.1817     -3.2641     -1.5510     0.72772    
  3.2662      5.7334      7.8339      9.3622      10.236      10.501      10.309      9.8719      9.4141      9.0828    
  8.8600      8.7087      8.6103      8.5603      8.5603      8.6103      8.7087      8.8600      9.0828      9.4141    
  9.8719      10.309      10.501      10.236      9.3622      7.8339      5.7334      3.2662     0.72772     -1.5510    
 -3.2641     -4.1817     -3.2641     -2.0585     -.18645      2.1454      4.6638      7.0675      9.0834      10.524    
  11.326      11.562      11.410      11.103      10.856      10.717      10.640      10.594      10.566      10.556    
  10.566      10.594      10.640      10.717      10.856      11.103      11.410      11.562      11.326      10.524    
  9.0834      7.0675      4.6638      2.1454     -.18645     -2.0585     -3.2641     -3.6796     -1.5510     -.18645    
  1.7345      4.0325      6.4584      8.7302      10.594      11.890      12.591      12.811      12.759      12.672    
  12.680      12.743      12.812      12.862      12.887      12.887      12.862      12.812      12.743      12.680    
  12.672      12.759      12.811      12.591      11.890      10.594      8.7302      6.4584      4.0325      1.7345    
 -.18645     -1.5510     -2.2553     -2.2553     0.72772      2.1454      4.0325      6.2273      8.4934      10.565    
  12.220      13.343      13.964      14.242      14.402      14.626      14.902      15.164      15.368      15.493    
  15.534      15.493      15.368      15.164      14.902      14.627      14.402      14.242      13.964      13.343    
  12.220      10.565      8.4934      6.2273      4.0325      2.1454     0.72773     -.13927     -.42955     -.13927    
  3.2662      4.6638      6.4584      8.4934      10.542      12.366      13.795      14.781      15.417      15.891    
  16.399      16.963      17.502      17.948      18.258      18.415      18.415      18.258      17.948      17.502    
  16.963      16.399      15.891      15.416      14.781      13.795      12.366      10.542      8.4934      6.4584    
  4.6638      3.2662      2.3349      1.8760      1.8760      2.3349      5.7334      7.0675      8.7302      10.565    
  12.366      13.945      15.203      16.170      16.986      17.827      18.742      19.637      20.416      21.009    
  21.373      21.494      21.373      21.008      20.416      19.637      18.743      17.828      16.986      16.170    
  15.203      13.945      12.366      10.565      8.7302      7.0675      5.7334      4.7991      4.2617      4.0884    
  4.2617      4.7991      7.8339      9.0834      10.594      12.220      13.795      15.203      16.430      17.567    
  18.758      20.057      21.362      22.552      23.505      24.129      24.426      24.426      24.129      23.505    
  22.552      21.362      20.057      18.758      17.567      16.430      15.203      13.795      12.220      10.594    
  9.0834      7.8339      6.9247      6.3587      6.0946      6.0946      6.3587      6.9247      9.3622      10.524    
  11.890      13.343      14.781      16.170      17.567      19.081      20.757      22.488      24.127      25.459    
  26.350      26.826      26.971      26.826      26.350      25.459      24.127      22.488      20.757      19.082    
  17.567      16.170      14.781      13.343      11.890      10.524      9.3622      8.4844      7.9064      7.5927    
  7.4953      7.5927      7.9064      8.4844      10.236      11.326      12.591      13.964      15.417      16.986    
  18.758      20.757      22.879      24.958      26.685      27.859      28.511      28.781      28.781      28.511    
  27.859      26.684      24.958      22.879      20.757      18.758      16.986      15.416      13.964      12.591    
  11.326      10.236      9.3832      8.7909      8.4374      8.2779      8.2779      8.4374      8.7909      9.3832    
  10.501      11.562      12.811      14.242      15.891      17.827      20.057      22.488      24.958      27.100    
  28.610      29.474      29.863      29.965      29.863      29.474      28.610      27.099      24.958      22.488    
  20.057      17.828      15.891      14.242      12.811      11.562      10.501      9.6553      9.0392      8.6412    
  8.4268      8.3604      8.4269      8.6412      9.0392      9.6553      10.309      11.410      12.759      14.402    
  16.399      18.742      21.362      24.127      26.685      28.610      29.783      30.348      30.544      30.545    
  30.348      29.783      28.610      26.684      24.127      21.362      18.743      16.399      14.402      12.759    
  11.410      10.309      9.4360      8.7820      8.3318      8.0586      7.9322      7.9323      8.0587      8.3317    
  8.7820      9.4360      9.8719      11.103      12.672      14.626      16.963      19.637      22.552      25.459    
  27.859      29.474      30.348      30.710      30.799      30.710      30.348      29.474      27.859      25.459    
  22.552      19.637      16.963      14.627      12.672      11.103      9.8719      8.9197      8.2043      7.6931    
  7.3569      7.1687      7.1084      7.1687      7.3569      7.6931      8.2043      8.9197      9.4141      10.856    
  12.680      14.902      17.502      20.416      23.505      26.350      28.511      29.863      30.544      30.799    
  30.799      30.545      29.863      28.511      26.350      23.505      20.416      17.502      14.902      12.680    
  10.856      9.4141      8.3174      7.5031      6.9152      6.5110      6.2591      6.1384      6.1384      6.2591    
  6.5110      6.9153      7.5031      8.3173      9.0828      10.717      12.743      15.164      17.948      21.009    
  24.129      26.826      28.781      29.965      30.545      30.710      30.545      29.966      28.781      26.826    
  24.129      21.008      17.948      15.164      12.743      10.717      9.0828      7.8116      6.8571      6.1655    
  5.6816      5.3623      5.1802      5.1210      5.1802      5.3623      5.6816      6.1655      6.8571      7.8116    
  8.8600      10.640      12.812      15.368      18.258      21.373      24.426      26.971      28.781      29.863    
  30.348      30.348      29.863      28.781      26.971      24.426      21.373      18.258      15.368      12.812    
  10.640      8.8600      7.4500      6.3689      5.5659      4.9891      4.5935      4.3461      4.2268      4.2268    
  4.3461      4.5935      4.9891      5.5659      6.3689      7.4500      8.7087      10.594      12.862      15.493    
  18.415      21.494      24.426      26.826      28.511      29.474      29.783      29.474      28.511      26.826    
  24.426      21.494      18.415      15.493      12.862      10.594      8.7087      7.1944      6.0151      5.1232    
  4.4675      4.0024      3.6921      3.5138      3.4555      3.5138      3.6921      4.0024      4.4675      5.1231    
  6.0151      7.1944      8.6103      10.566      12.887      15.534      18.415      21.373      24.129      26.350    
  27.859      28.610      28.610      27.859      26.350      24.129      21.373      18.415      15.534      12.887    
  10.566      8.6103      7.0191      5.7644      4.8023      4.0834      3.5611      3.1978      2.9676      2.8557    
  2.8557      2.9676      3.1978      3.5611      4.0834      4.8023      5.7644      7.0191      8.5603      10.556    
  12.887      15.493      18.258      21.008      23.505      25.459      26.684      27.099      26.684      25.459    
  23.505      21.008      18.258      15.493      12.887      10.556      8.5603      6.9142      5.6003      4.5811    
  3.8098      3.2401      2.8326      2.5586      2.4001      2.3482      2.4001      2.5586      2.8326      3.2401    
  3.8099      4.5811      5.6003      6.9142      8.5603      10.566      12.862      15.368      17.948      20.416    
  22.552      24.127      24.958      24.958      24.127      22.552      20.416      17.948      15.368      12.862    
  10.566      8.5603      6.8789      5.5182      4.4497      3.6318      3.0198      2.5736      2.2621      2.0642    
  1.9679      1.9679      2.0642      2.2621      2.5736      3.0198      3.6318      4.4497      5.5181      6.8789    
  8.6103      10.594      12.812      15.164      17.502      19.637      21.362      22.488      22.879      22.488    
  21.362      19.637      17.502      15.164      12.812      10.594      8.6103      6.9142      5.5182      4.4059    
  3.5435      2.8902      2.4069      2.0609      1.8286      1.6946      1.6508      1.6946      1.8286      2.0609    
  2.4069      2.8902      3.5435      4.4059      5.5182      6.9142      8.7087      10.640      12.743      14.902    
  16.963      18.743      20.057      20.757      20.757      20.057      18.743      16.963      14.902      12.743    
  10.640      8.7087      7.0191      5.6003      4.4497      3.5435      2.8473      2.3249      1.9440      1.6790    
  1.5118      1.4310      1.4310      1.5118      1.6790      1.9440      2.3249      2.8473      3.5435      4.4497    
  5.6003      7.0191      8.8600      10.717      12.680      14.627      16.399      17.828      18.758      19.082    
  18.758      17.828      16.399      14.627      12.680      10.717      8.8600      7.1944      5.7644      4.5811    
  3.6318      2.8902      2.3249      1.9056      1.6065      1.4073      1.2936      1.2566      1.2936      1.4073    
  1.6065      1.9056      2.3249      2.8902      3.6318      4.5811      5.7644      7.1944      9.0828      10.856    
  12.672      14.402      15.891      16.986      17.567      17.567      16.986      15.891      14.402      12.672    
  10.856      9.0828      7.4500      6.0151      4.8023      3.8098      3.0198      2.4069      1.9440      1.6065    
  1.3733      1.2278      1.1580      1.1580      1.2278      1.3733      1.6065      1.9440      2.4069      3.0198    
  3.8098      4.8023      6.0151      7.4500      9.4141      11.103      12.759      14.242      15.416      16.170    
  16.430      16.170      15.416      14.242      12.759      11.103      9.4141      7.8116      6.3689      5.1232    
  4.0834      3.2401      2.5736      2.0609      1.6790      1.4073      1.2278      1.1262      1.0935      1.1262    
  1.2278      1.4073      1.6790      2.0609      2.5736      3.2401      4.0834      5.1232      6.3689      7.8116    
  9.8719      11.410      12.811      13.964      14.781      15.203      15.203      14.781      13.964      12.811    
  11.410      9.8719      8.3174      6.8571      5.5659      4.4675      3.5611      2.8326      2.2621      1.8286    
  1.5118      1.2936      1.1580      1.0935      1.0935      1.1580      1.2936      1.5118      1.8286      2.2621    
  2.8326      3.5611      4.4676      5.5659      6.8571      8.3173      10.309      11.562      12.591      13.343    
  13.795      13.945      13.795      13.343      12.591      11.562      10.309      8.9197      7.5031      6.1655    
  4.9891      4.0024      3.1978      2.5586      2.0642      1.6946      1.4310      1.2566      1.1580      1.1262    
  1.1580      1.2566      1.4310      1.6946      2.0642      2.5586      3.1978      4.0023      4.9891      6.1655    
  7.5031      8.9197      10.501      11.326      11.890      12.220      12.366      12.366      12.220      11.890    
  11.326      10.501      9.4360      8.2043      6.9152      5.6816      4.5935      3.6921      2.9676      2.4001    
  1.9679      1.6508      1.4310      1.2936      1.2278      1.2278      1.2936      1.4310      1.6508      1.9679    
  2.4001      2.9676      3.6921      4.5935      5.6816      6.9153      8.2043      9.4360      10.236      10.524    
  10.594      10.565      10.542      10.565      10.594      10.524      10.236      9.6553      8.7820      7.6931    
  6.5110      5.3623      4.3461      3.5138      2.8557      2.3482      1.9679      1.6946      1.5118      1.4073    
  1.3733      1.4073      1.5118      1.6946      1.9679      2.3482      2.8557      3.5138      4.3461      5.3623    
  6.5110      7.6931      8.7820      9.6553      9.3622      9.0834      8.7302      8.4934      8.4934      8.7302    
  9.0834      9.3622      9.3832      9.0392      8.3318      7.3569      6.2591      5.1802      4.2268      3.4555    
  2.8557      2.4001      2.0642      1.8286      1.6790      1.6065      1.6065      1.6790      1.8286      2.0642    
  2.4001      2.8557      3.4555      4.2268      5.1802      6.2591      7.3569      8.3318      9.0392      9.3832    
  7.8339      7.0675      6.4584      6.2273      6.4584      7.0675      7.8339      8.4844      8.7909      8.6412    
  8.0586      7.1687      6.1384      5.1210      4.2268      3.5138      2.9676      2.5586      2.2621      2.0609    
  1.9440      1.9056      1.9440      2.0609      2.2621      2.5586      2.9676      3.5138      4.2268      5.1210    
  6.1384      7.1687      8.0587      8.6412      8.7909      8.4844      5.7334      4.6638      4.0325      4.0325    
  4.6638      5.7334      6.9247      7.9064      8.4374      8.4268      7.9322      7.1084      6.1384      5.1802    
  4.3461      3.6921      3.1978      2.8326      2.5736      2.4069      2.3249      2.3249      2.4069      2.5736    
  2.8326      3.1978      3.6921      4.3461      5.1802      6.1384      7.1084      7.9323      8.4269      8.4374    
  7.9064      6.9247      3.2662      2.1454      1.7345      2.1454      3.2662      4.7991      6.3587      7.5927    
  8.2779      8.3604      7.9323      7.1687      6.2591      5.3623      4.5935      4.0024      3.5611      3.2401    
  3.0198      2.8902      2.8473      2.8902      3.0198      3.2401      3.5611      4.0023      4.5935      5.3623    
  6.2591      7.1687      7.9323      8.3604      8.2779      7.5927      6.3587      4.7991     0.72772     -.18645    