unknown system                          
   1.00000000000000     
     0.000000    3.029200    3.029200
     3.029200    0.000000    3.029200
     3.029200    3.029200    0.000000
   In   As
     1     1
Direct
  0.000000  0.000000  0.000000
  0.250000  0.250000  0.250000
 
   36   36   36
 -.46998125925E+01 -.41816979027E+01 -.27110744815E+01 -.52336253555E+00 0.20400995053E+01
 0.46009405896E+01 0.68202716078E+01 0.84618215300E+01 0.94246828028E+01 0.97411035198E+01
 0.95474053326E+01 0.90415313553E+01 0.84386537459E+01 0.79270878793E+01 0.75615777977E+01
 0.73037556316E+01 0.71271636484E+01 0.70214613006E+01 0.69859220745E+01 0.70214658005E+01
 0.71271701930E+01 0.73037601303E+01 0.75615767934E+01 0.79270815242E+01 0.84386463157E+01
 0.90415273350E+01 0.95474049924E+01 0.97411040393E+01 0.94246833952E+01 0.84618242145E+01
 0.68202760560E+01 0.46009423108E+01 0.20400960516E+01 -.52336698163E+00 -.27110747554E+01
 -.41816954678E+01 -.41816979027E+01 -.32641220002E+01 -.15509942285E+01 0.72772300903E+00
 0.32661930353E+01 0.57334134962E+01 0.78338865175E+01 0.93621737510E+01 0.10236126831E+02
 0.10501426540E+02 0.10308894019E+02 0.98718783443E+01 0.94141497318E+01 0.90827920804E+01
 0.88599504342E+01 0.87087076504E+01 0.86102584207E+01 0.85603344679E+01 0.85603382356E+01
 0.86102693333E+01 0.87087221345E+01 0.88599601083E+01 0.90827893941E+01 0.94141355312E+01
 0.98718613549E+01 0.10308882729E+02 0.10501423178E+02 0.10236128532E+02 0.93621769304E+01
 0.78338893646E+01 0.57334158174E+01 0.32661949161E+01 0.72772380917E+00 -.15509952769E+01
 -.32641241812E+01 -.41816990452E+01 -.27110744815E+01 -.15509942285E+01 0.24857672904E+00
 0.24870601567E+01 0.48998499392E+01 0.71960927288E+01 0.91130639788E+01 0.10471447323E+02
 0.11213447507E+02 0.11410893765E+02 0.11239763905E+02 0.10927915467E+02 0.10682080865E+02
 0.10543413834E+02 0.10465761129E+02 0.10418706522E+02 0.10390497862E+02 0.10380667707E+02
 0.10390494061E+02 0.10418720129E+02 0.10465799212E+02 0.10543450761E+02 0.10682083779E+02
 0.10927879966E+02 0.11239716875E+02 0.11410865498E+02 0.11213446707E+02 0.10471460227E+02
 0.91130721039E+01 0.71960904240E+01 0.48998457996E+01 0.24870629010E+01 0.24858403286E+00
 -.15509899986E+01 -.27110745158E+01 -.31109980402E+01 -.52336253555E+00 0.72772300903E+00
 0.24870601567E+01 0.45879267808E+01 0.67990346107E+01 0.88592120300E+01 0.10534755129E+02
 0.11679666352E+02 0.12275276407E+02 0.12432263168E+02 0.12351955580E+02 0.12258788350E+02
 0.12262050727E+02 0.12317273674E+02 0.12379913074E+02 0.12425992586E+02 0.12448702829E+02
 0.12448686003E+02 0.12425978238E+02 0.12379957948E+02 0.12317371432E+02 0.12262128688E+02
 0.12258785263E+02 0.12351881074E+02 0.12432177683E+02 0.12275230235E+02 0.11679665557E+02
 0.10534773822E+02 0.88592242852E+01 0.67990343526E+01 0.45879236703E+01 0.24870626096E+01
 0.72772935399E+00 -.52335782460E+00 -.11694277741E+01 -.11694291694E+01 0.20400995053E+01
 0.32661930353E+01 0.48998499392E+01 0.67990346107E+01 0.87545719704E+01 0.10531274644E+02
 0.11932508841E+02 0.12861823118E+02 0.13353982758E+02 0.13559651457E+02 0.13687927923E+02
 0.13892896157E+02 0.14145814501E+02 0.14386547625E+02 0.14574207352E+02 0.14689566076E+02
 0.14727997933E+02 0.14689523335E+02 0.14574201865E+02 0.14386645487E+02 0.14145984948E+02
 0.13893029458E+02 0.13687933834E+02 0.13559538063E+02 0.13353842171E+02 0.12861745066E+02
 0.11932510012E+02 0.10531307801E+02 0.87545905167E+01 0.67990337292E+01 0.48998478237E+01
 0.32661953571E+01 0.20400984008E+01 0.12912990263E+01 0.10408497002E+01 0.12913037991E+01
 0.46009405896E+01 0.57334134962E+01 0.71960927288E+01 0.88592120300E+01 0.10531274644E+02
 0.12011112195E+02 0.13156085983E+02 0.13934679538E+02 0.14436967221E+02 0.14835459523E+02
 0.15294202586E+02 0.15805742397E+02 0.16294739416E+02 0.16699754434E+02 0.16982461576E+02
 0.17125987174E+02 0.17125936171E+02 0.16982367924E+02 0.16699747615E+02 0.16294903464E+02
 0.15806020980E+02 0.15294422789E+02 0.14835477753E+02 0.14436802200E+02 0.13934486607E+02
 0.13155997706E+02 0.12011127266E+02 0.10531309086E+02 0.88592185541E+01 0.71960902267E+01
 0.57334219950E+01 0.46009448477E+01 0.38518015447E+01 0.34849318903E+01 0.34849415044E+01
 0.38518138157E+01 0.68202716078E+01 0.78338865175E+01 0.91130639788E+01 0.10534755129E+02
 0.11932508841E+02 0.13156085983E+02 0.14132762873E+02 0.14898405247E+02 0.15580010498E+02
 0.16325694819E+02 0.17140720697E+02 0.17937581341E+02 0.18632985188E+02 0.19163814875E+02
 0.19492739128E+02 0.19603613314E+02 0.19492573499E+02 0.19163632915E+02 0.18632981524E+02
 0.17937839186E+02 0.17141119000E+02 0.16325987191E+02 0.15580033734E+02 0.14898216656E+02
 0.14132558832E+02 0.13155999388E+02 0.11932517763E+02 0.10534775372E+02 0.91130662687E+01
 0.78338924570E+01 0.68202852143E+01 0.61223362848E+01 0.57280686595E+01 0.56024406188E+01
 0.57280788306E+01 0.61223349900E+01 0.84618215300E+01 0.93621737510E+01 0.10471447323E+02
 0.11679666352E+02 0.12861823118E+02 0.13934679538E+02 0.14898405247E+02 0.15838065080E+02
 0.16873469657E+02 0.18008854536E+02 0.19148808618E+02 0.20190262632E+02 0.21042474178E+02
 0.21635331468E+02 0.21931890947E+02 0.21931760937E+02 0.21635024094E+02 0.21042203814E+02
 0.20190258504E+02 0.19149140656E+02 0.18009343557E+02 0.16873813426E+02 0.15838095729E+02
 0.14898215890E+02 0.13934488249E+02 0.12861748885E+02 0.11679671734E+02 0.10471458116E+02
 0.93621754230E+01 0.84618304484E+01 0.78240765738E+01 0.74401299502E+01 0.72664636512E+01
 0.72664679150E+01 0.74401316316E+01 0.78240663719E+01 0.94246828028E+01 0.10236126831E+02
 0.11213447507E+02 0.12275276407E+02 0.13353982758E+02 0.14436967221E+02 0.15580010498E+02
 0.16873469657E+02 0.18310246724E+02 0.19792714184E+02 0.21204080309E+02 0.22422683658E+02
 0.23318965651E+02 0.23843284578E+02 0.24012940560E+02 0.23843017354E+02 0.23318536222E+02
 0.22422328768E+02 0.21204064268E+02 0.19793096526E+02 0.18310781443E+02 0.16873811157E+02
 0.15580025115E+02 0.14436801308E+02 0.13353845359E+02 0.12275233771E+02 0.11213445105E+02
 0.10236122765E+02 0.94246850683E+01 0.88310213797E+01 0.84566341175E+01 0.82632845266E+01
 0.82054274343E+01 0.82632942260E+01 0.84566334270E+01 0.88310105434E+01 0.97411035198E+01
 0.10501426540E+02 0.11410893765E+02 0.12432263168E+02 0.13559651457E+02 0.14835459523E+02
 0.16325694819E+02 0.18008854536E+02 0.19792714184E+02 0.21556246990E+02 0.23148952661E+02
 0.24376758733E+02 0.25161667019E+02 0.25532221692E+02 0.25532108916E+02 0.25161322471E+02
 0.24376259252E+02 0.23148555291E+02 0.21556232469E+02 0.19793100390E+02 0.18009350310E+02
 0.16325981662E+02 0.14835469159E+02 0.13559539139E+02 0.12432181051E+02 0.11410867300E+02
 0.10501418356E+02 0.97410997515E+01 0.91655640485E+01 0.87820792680E+01 0.85645904881E+01
 0.84711873641E+01 0.84711935042E+01 0.85645977466E+01 0.87820758432E+01 0.91655592546E+01
 0.95474053326E+01 0.10308894019E+02 0.11239763905E+02 0.12351955580E+02 0.13687927923E+02
 0.15294202586E+02 0.17140720697E+02 0.19148808618E+02 0.21204080309E+02 0.23148952661E+02
 0.24735519330E+02 0.25825209430E+02 0.26432251269E+02 0.26623535986E+02 0.26432137585E+02
 0.25824881283E+02 0.24735018003E+02 0.23148558108E+02 0.21204065929E+02 0.19149149328E+02
 0.17141125597E+02 0.15294416567E+02 0.13687931762E+02 0.12351883453E+02 0.11239717864E+02
 0.10308882762E+02 0.95474047896E+01 0.89599267968E+01 0.85463104231E+01 0.82887827390E+01
 0.81552515966E+01 0.81149498596E+01 0.81552567489E+01 0.82887848267E+01 0.85463080565E+01
 0.89599251518E+01 0.90415313553E+01 0.98718783443E+01 0.10927915467E+02 0.12258788350E+02
 0.13892896157E+02 0.15805742397E+02 0.17937581341E+02 0.20190262632E+02 0.22422683658E+02
 0.24376758733E+02 0.25825209430E+02 0.26727471549E+02 0.27146915180E+02 0.27146945113E+02
 0.26727436861E+02 0.25824927096E+02 0.24376292045E+02 0.22422335794E+02 0.20190259341E+02
 0.17937847286E+02 0.15806022163E+02 0.13893024461E+02 0.12258787237E+02 0.10927880575E+02
 0.98718587063E+01 0.90415256931E+01 0.84051405783E+01 0.79417435084E+01 0.76302931610E+01
 0.74451949168E+01 0.73608287893E+01 0.73608333100E+01 0.74452005573E+01 0.76302903482E+01
 0.79417367993E+01 0.84051387225E+01 0.84386537459E+01 0.94141497318E+01 0.10682080865E+02
 0.12262050727E+02 0.14145814501E+02 0.16294739416E+02 0.18632985188E+02 0.21042474178E+02
 0.23318965651E+02 0.25161667019E+02 0.26432251269E+02 0.27146915180E+02 0.27373981969E+02
 0.27147022306E+02 0.26432257726E+02 0.25161424781E+02 0.23318584060E+02 0.21042210689E+02
 0.18632980007E+02 0.16294908515E+02 0.14145982781E+02 0.12262125940E+02 0.10682083955E+02
 0.94141332736E+01 0.84386422025E+01 0.77058538015E+01 0.71690306340E+01 0.67925143211E+01
 0.65476949606E+01 0.64114609785E+01 0.63679597465E+01 0.64114626712E+01 0.65476935451E+01
 0.67925100257E+01 0.71690291665E+01 0.77058583773E+01 0.79270878793E+01 0.90827920804E+01
 0.10543413834E+02 0.12317273674E+02 0.14386547625E+02 0.16699754434E+02 0.19163814875E+02
 0.21635331468E+02 0.23843284578E+02 0.25532221692E+02 0.26623535986E+02 0.27146945113E+02
 0.27147022306E+02 0.26623672450E+02 0.25532235491E+02 0.23843101777E+02 0.21635060753E+02
 0.19163633987E+02 0.16699744980E+02 0.14386648138E+02 0.12317370852E+02 0.10543450742E+02
 0.90827873535E+01 0.79270796789E+01 0.70484065023E+01 0.64051778352E+01 0.59479909724E+01
 0.56365718963E+01 0.54431674040E+01 0.53505649578E+01 0.53505602130E+01 0.54431604388E+01
 0.56365729718E+01 0.59479974725E+01 0.64051803964E+01 0.70484071395E+01 0.75615777977E+01
 0.88599504342E+01 0.10465761129E+02 0.12379913074E+02 0.14574207352E+02 0.16982461576E+02
 0.19492739128E+02 0.21931890947E+02 0.24012940560E+02 0.25532108916E+02 0.26432137585E+02
 0.26727436861E+02 0.26432257726E+02 0.25532235491E+02 0.24012954846E+02 0.21931775169E+02
 0.19492579713E+02 0.16982361088E+02 0.14574200140E+02 0.12379958201E+02 0.10465800364E+02
 0.88599620063E+01 0.75615769544E+01 0.65484728003E+01 0.57845848301E+01 0.52277596431E+01
 0.48374182208E+01 0.45804221373E+01 0.44340412588E+01 0.43864187916E+01 0.44340368630E+01
 0.45804226728E+01 0.48374252878E+01 0.52277634260E+01 0.57845809615E+01 0.65484697078E+01
 0.73037556316E+01 0.87087076504E+01 0.10418706522E+02 0.12425992586E+02 0.14689566076E+02
 0.17125987174E+02 0.19603613314E+02 0.21931760937E+02 0.23843017354E+02 0.25161322471E+02
 0.25824881283E+02 0.25824927096E+02 0.25161424781E+02 0.23843101777E+02 0.21931775169E+02
 0.19603561083E+02 0.17125912642E+02 0.14689513628E+02 0.12425978066E+02 0.10418716652E+02
 0.87087206236E+01 0.73037614624E+01 0.61874519237E+01 0.53276264732E+01 0.46844907584E+01
 0.42183015906E+01 0.38954712427E+01 0.36919093553E+01 0.35932853727E+01 0.35932861435E+01
 0.36919121480E+01 0.38954749888E+01 0.42183024177E+01 0.46844872093E+01 0.53276223063E+01
 0.61874493552E+01 0.71271636484E+01 0.86102584207E+01 0.10390497862E+02 0.12448702829E+02
 0.14727997933E+02 0.17125936171E+02 0.19492573499E+02 0.21635024094E+02 0.23318536222E+02
 0.24376259252E+02 0.24735018003E+02 0.24376292045E+02 0.23318584060E+02 0.21635060753E+02
 0.19492579713E+02 0.17125912642E+02 0.14727964571E+02 0.12448681804E+02 0.10390495194E+02
 0.86102632155E+01 0.71271644793E+01 0.59322222001E+01 0.49977118288E+01 0.42861366614E+01
 0.37583755063E+01 0.33801032530E+01 0.31255617782E+01 0.29783790633E+01 0.29301479392E+01
 0.29783788629E+01 0.31255624436E+01 0.33801033872E+01 0.37583727840E+01 0.42861331092E+01
 0.49977119914E+01 0.59322250638E+01 0.70214613006E+01 0.85603344679E+01 0.10380667707E+02
 0.12448686003E+02 0.14689523335E+02 0.16982367924E+02 0.19163632915E+02 0.21042203814E+02
 0.22422328768E+02 0.23148555291E+02 0.23148558108E+02 0.22422335794E+02 0.21042210689E+02
 0.19163633987E+02 0.16982361088E+02 0.14689513628E+02 0.12448681804E+02 0.10380671803E+02
 0.85603407035E+01 0.70214619316E+01 0.57653485511E+01 0.47706555051E+01 0.40031810044E+01
 0.34247966813E+01 0.30004966290E+01 0.27027362028E+01 0.25128592285E+01 0.24202120637E+01
 0.24202109628E+01 0.25128571942E+01 0.27027347586E+01 0.30004952686E+01 0.34247953109E+01
 0.40031822143E+01 0.47706608151E+01 0.57653539040E+01 0.69859220745E+01 0.85603382356E+01
 0.10390494061E+02 0.12425978238E+02 0.14574201865E+02 0.16699747615E+02 0.18632981524E+02
 0.20190258504E+02 0.21204064268E+02 0.21556232469E+02 0.21204065929E+02 0.20190259341E+02
 0.18632980007E+02 0.16699744980E+02 0.14574200140E+02 0.12425978066E+02 0.10390495194E+02
 0.85603407035E+01 0.69859255029E+01 0.56818060604E+01 0.46358182919E+01 0.38191708048E+01
 0.31960651912E+01 0.27315189931E+01 0.23964471557E+01 0.21698037504E+01 0.20383656371E+01
 0.19952474710E+01 0.20383651462E+01 0.21698028111E+01 0.23964465213E+01 0.27315198823E+01
 0.31960677274E+01 0.38191731619E+01 0.46358182575E+01 0.56818034072E+01 0.70214658005E+01
 0.86102693333E+01 0.10418720129E+02 0.12379957948E+02 0.14386645487E+02 0.16294903464E+02
 0.17937839186E+02 0.19149140656E+02 0.19793096526E+02 0.19793100390E+02 0.19149149328E+02
 0.17937847286E+02 0.16294908515E+02 0.14386648138E+02 0.12379958201E+02 0.10418716652E+02
 0.86102632155E+01 0.70214619316E+01 0.56818060604E+01 0.45908568232E+01 0.37278146548E+01
 0.30613484546E+01 0.25580128780E+01 0.21880784899E+01 0.19284517620E+01 0.17632152824E+01
 0.16827972802E+01 0.16827974201E+01 0.17632154541E+01 0.19284522187E+01 0.21880803816E+01
 0.25580158071E+01 0.30613491406E+01 0.37278106239E+01 0.45908507917E+01 0.56818038728E+01
 0.71271701930E+01 0.87087221345E+01 0.10465799212E+02 0.12317371432E+02 0.14145984948E+02
 0.15806020980E+02 0.17141119000E+02 0.18009343557E+02 0.18310781443E+02 0.18009350310E+02
 0.17141125597E+02 0.15806022163E+02 0.14145982781E+02 0.12317370852E+02 0.10465800364E+02
 0.87087206236E+01 0.71271644793E+01 0.57653485511E+01 0.46358182919E+01 0.37278146548E+01
 0.30167116067E+01 0.24726002270E+01 0.20666297435E+01 0.17746084236E+01 0.15782832161E+01
 0.14652381692E+01 0.14283324313E+01 0.14652391965E+01 0.15782840296E+01 0.17746087660E+01
 0.20666301350E+01 0.24725997090E+01 0.30167087550E+01 0.37278112985E+01 0.46358188298E+01
 0.57653540088E+01 0.73037601303E+01 0.88599601083E+01 0.10543450761E+02 0.12262128688E+02
 0.13893029458E+02 0.15294422789E+02 0.16325987191E+02 0.16873813426E+02 0.16873811157E+02
 0.16325981662E+02 0.15294416567E+02 0.13893024461E+02 0.12262125940E+02 0.10543450742E+02
 0.88599620063E+01 0.73037614624E+01 0.59322222001E+01 0.47706555051E+01 0.38191708048E+01
 0.30613484546E+01 0.24726002270E+01 0.20266771098E+01 0.16996915158E+01 0.14719625548E+01
 0.13285594719E+01 0.12594087115E+01 0.12594090882E+01 0.13285601914E+01 0.14719626828E+01
 0.16996902941E+01 0.20266747242E+01 0.24725981692E+01 0.30613486812E+01 0.38191737638E+01
 0.47706591041E+01 0.59322236158E+01 0.75615767934E+01 0.90827893941E+01 0.10682083779E+02
 0.12258785263E+02 0.13687933834E+02 0.14835477753E+02 0.15580033734E+02 0.15838095729E+02
 0.15580025115E+02 0.14835469159E+02 0.13687931762E+02 0.12258787237E+02 0.10682083955E+02
 0.90827873535E+01 0.75615769544E+01 0.61874519237E+01 0.49977118288E+01 0.40031810044E+01
 0.31960651912E+01 0.25580128780E+01 0.20666297435E+01 0.16996915158E+01 0.14372985111E+01
 0.12628287807E+01 0.11635642283E+01 0.11314072553E+01 0.11635633972E+01 0.12628282829E+01
 0.14372984030E+01 0.16996908802E+01 0.20666292400E+01 0.25580143645E+01 0.31960679709E+01
 0.40031813857E+01 0.49977082675E+01 0.61874480564E+01 0.79270815242E+01 0.94141355312E+01
 0.10927879966E+02 0.12351881074E+02 0.13559538063E+02 0.14436802200E+02 0.14898216656E+02
 0.14898215890E+02 0.14436801308E+02 0.13559539139E+02 0.12351883453E+02 0.10927880575E+02
 0.94141332736E+01 0.79270796789E+01 0.65484728003E+01 0.53276264732E+01 0.42861366614E+01
 0.34247966813E+01 0.27315189931E+01 0.21880784899E+01 0.17746084236E+01 0.14719625548E+01
 0.12628287807E+01 0.11325790861E+01 0.10703710634E+01 0.10703705569E+01 0.11325782906E+01
 0.12628286287E+01 0.14719629803E+01 0.17746094920E+01 0.21880809516E+01 0.27315220712E+01
 0.34247971479E+01 0.42861325784E+01 0.53276207542E+01 0.65484703906E+01 0.84386463157E+01
 0.98718613549E+01 0.11239716875E+02 0.12432177683E+02 0.13353842171E+02 0.13934486607E+02
 0.14132558832E+02 0.13934488249E+02 0.13353845359E+02 0.12432181051E+02 0.11239717864E+02
 0.98718587063E+01 0.84386422025E+01 0.70484065023E+01 0.57845848301E+01 0.46844907584E+01
 0.37583755063E+01 0.30004966290E+01 0.23964471557E+01 0.19284517620E+01 0.15782832161E+01
 0.13285594719E+01 0.11635642283E+01 0.10703710634E+01 0.10403266313E+01 0.10703706052E+01
 0.11635644482E+01 0.13285603604E+01 0.15782835604E+01 0.19284515627E+01 0.23964477754E+01
 0.30004979816E+01 0.37583754896E+01 0.46844886730E+01 0.57845833149E+01 0.70484083148E+01
 0.90415273350E+01 0.10308882729E+02 0.11410865498E+02 0.12275230235E+02 0.12861745066E+02
 0.13155997706E+02 0.13155999388E+02 0.12861748885E+02 0.12275233771E+02 0.11410867300E+02
 0.10308882762E+02 0.90415256931E+01 0.77058538015E+01 0.64051778352E+01 0.52277596431E+01
 0.42183015906E+01 0.33801032530E+01 0.27027362028E+01 0.21698037504E+01 0.17632152824E+01
 0.14652381692E+01 0.12594087115E+01 0.11314072553E+01 0.10703705569E+01 0.10703706052E+01
 0.11314075028E+01 0.12594092331E+01 0.14652385279E+01 0.17632144820E+01 0.21698012099E+01
 0.27027330127E+01 0.33801019270E+01 0.42183039197E+01 0.52277648570E+01 0.64051833199E+01
 0.77058575127E+01 0.95474049924E+01 0.10501423178E+02 0.11213446707E+02 0.11679665557E+02
 0.11932510012E+02 0.12011127266E+02 0.11932517763E+02 0.11679671734E+02 0.11213445105E+02
 0.10501418356E+02 0.95474047896E+01 0.84051405783E+01 0.71690306340E+01 0.59479909724E+01
 0.48374182208E+01 0.38954712427E+01 0.31255617782E+01 0.25128592285E+01 0.20383656371E+01
 0.16827972802E+01 0.14283324313E+01 0.12594090882E+01 0.11635633972E+01 0.11325782906E+01
 0.11635644482E+01 0.12594092331E+01 0.14283316471E+01 0.16827972823E+01 0.20383656578E+01
 0.25128566325E+01 0.31255578838E+01 0.38954715274E+01 0.48374242232E+01 0.59479964737E+01
 0.71690297977E+01 0.84051365206E+01 0.97411040393E+01 0.10236128532E+02 0.10471460227E+02
 0.10534773822E+02 0.10531307801E+02 0.10531309086E+02 0.10534775372E+02 0.10471458116E+02
 0.10236122765E+02 0.97410997515E+01 0.89599267968E+01 0.79417435084E+01 0.67925143211E+01
 0.56365718963E+01 0.45804221373E+01 0.36919093553E+01 0.29783790633E+01 0.24202120637E+01
 0.19952474710E+01 0.16827974201E+01 0.14652391965E+01 0.13285601914E+01 0.12628282829E+01
 0.12628286287E+01 0.13285603604E+01 0.14652385279E+01 0.16827972823E+01 0.19952489765E+01
 0.24202139158E+01 0.29783798502E+01 0.36919098904E+01 0.45804229782E+01 0.56365706763E+01
 0.67925089868E+01 0.79417370249E+01 0.89599249336E+01 0.94246833952E+01 0.93621769304E+01
 0.91130721039E+01 0.88592242852E+01 0.87545905167E+01 0.88592185541E+01 0.91130662687E+01
 0.93621754230E+01 0.94246850683E+01 0.91655640485E+01 0.85463104231E+01 0.76302931610E+01
 0.65476949606E+01 0.54431674040E+01 0.44340412588E+01 0.35932853727E+01 0.29301479392E+01
 0.24202109628E+01 0.20383651462E+01 0.17632154541E+01 0.15782840296E+01 0.14719626828E+01
 0.14372984030E+01 0.14719629803E+01 0.15782835604E+01 0.17632144820E+01 0.20383656578E+01
 0.24202139158E+01 0.29301514513E+01 0.35932865636E+01 0.44340392785E+01 0.54431641317E+01
 0.65476930209E+01 0.76302933352E+01 0.85463109183E+01 0.91655628886E+01 0.84618242145E+01
 0.78338893646E+01 0.71960904240E+01 0.67990343526E+01 0.67990337292E+01 0.71960902267E+01
 0.78338924570E+01 0.84618304484E+01 0.88310213797E+01 0.87820792680E+01 0.82887827390E+01
 0.74451949168E+01 0.64114609785E+01 0.53505649578E+01 0.43864187916E+01 0.35932861435E+01
 0.29783788629E+01 0.25128571942E+01 0.21698028111E+01 0.19284522187E+01 0.17746087660E+01
 0.16996902941E+01 0.16996908802E+01 0.17746094920E+01 0.19284515627E+01 0.21698012099E+01
 0.25128566325E+01 0.29783798502E+01 0.35932865636E+01 0.43864170399E+01 0.53505632933E+01
 0.64114636093E+01 0.74452023628E+01 0.82887899442E+01 0.87820805860E+01 0.88310165041E+01
 0.68202760560E+01 0.57334158174E+01 0.48998457996E+01 0.45879236703E+01 0.48998478237E+01
 0.57334219950E+01 0.68202852143E+01 0.78240765738E+01 0.84566341175E+01 0.85645904881E+01
 0.81552515966E+01 0.73608287893E+01 0.63679597465E+01 0.53505602130E+01 0.44340368630E+01
 0.36919121480E+01 0.31255624436E+01 0.27027347586E+01 0.23964465213E+01 0.21880803816E+01
 0.20666301350E+01 0.20266747242E+01 0.20666292400E+01 0.21880809516E+01 0.23964477754E+01
 0.27027330127E+01 0.31255578838E+01 0.36919098904E+01 0.44340392785E+01 0.53505632933E+01
 0.63679600694E+01 0.73608295083E+01 0.81552571349E+01 0.85645982562E+01 0.84566365579E+01
 0.78240707255E+01 0.46009423108E+01 0.32661949161E+01 0.24870629010E+01 0.24870626096E+01
 0.32661953571E+01 0.46009448477E+01 0.61223362848E+01 0.74401299502E+01 0.82632845266E+01
 0.84711873641E+01 0.81149498596E+01 0.73608333100E+01 0.64114626712E+01 0.54431604388E+01
 0.45804226728E+01 0.38954749888E+01 0.33801033872E+01 0.30004952686E+01 0.27315198823E+01
 0.25580158071E+01 0.24725997090E+01 0.24725981692E+01 0.25580143645E+01 0.27315220712E+01
 0.30004979816E+01 0.33801019270E+01 0.38954715274E+01 0.45804229782E+01 0.54431641317E+01
 0.64114636093E+01 0.73608295083E+01 0.81149466604E+01 0.84711892030E+01 0.82632886683E+01
 0.74401310761E+01 0.61223337704E+01 0.20400960516E+01 0.72772380917E+00 0.24858403286E+00
 0.72772935399E+00 0.20400984008E+01 0.38518015447E+01 0.57280686595E+01 0.72664636512E+01
 0.82054274343E+01 0.84711935042E+01 0.81552567489E+01 0.74452005573E+01 0.65476935451E+01
 0.56365729718E+01 0.48374252878E+01 0.42183024177E+01 0.37583727840E+01 0.34247953109E+01
 0.31960677274E+01 0.30613491406E+01 0.30167087550E+01 0.30613486812E+01 0.31960679709E+01
 0.34247971479E+01 0.37583754896E+01 0.42183039197E+01 0.48374242232E+01 0.56365706763E+01
 0.65476930209E+01 0.74452023628E+01 0.81552571349E+01 0.84711892030E+01 0.82054217190E+01
 0.72664636028E+01 0.57280752234E+01 0.38518068137E+01 -.52336698163E+00 -.15509952769E+01
 -.15509899986E+01 -.52335782460E+00 0.12912990263E+01 0.34849318903E+01 0.56024406188E+01
 0.72664679150E+01 0.82632942260E+01 0.85645977466E+01 0.82887848267E+01 0.76302903482E+01
 0.67925100257E+01 0.59479974725E+01 0.52277634260E+01 0.46844872093E+01 0.42861331092E+01
 0.40031822143E+01 0.38191731619E+01 0.37278106239E+01 0.37278112985E+01 0.38191737638E+01
 0.40031813857E+01 0.42861325784E+01 0.46844886730E+01 0.52277648570E+01 0.59479964737E+01
 0.67925089868E+01 0.76302933352E+01 0.82887899442E+01 0.85645982562E+01 0.82632886683E+01
 0.72664636028E+01 0.56024434096E+01 0.34849368009E+01 0.12912967400E+01 -.27110747554E+01
 -.32641241812E+01 -.27110745158E+01 -.11694277741E+01 0.10408497002E+01 0.34849415044E+01
 0.57280788306E+01 0.74401316316E+01 0.84566334270E+01 0.87820758432E+01 0.85463080565E+01
 0.79417367993E+01 0.71690291665E+01 0.64051803964E+01 0.57845809615E+01 0.53276223063E+01
 0.49977119914E+01 0.47706608151E+01 0.46358182575E+01 0.45908507917E+01 0.46358188298E+01
 0.47706591041E+01 0.49977082675E+01 0.53276207542E+01 0.57845833149E+01 0.64051833199E+01
 0.71690297977E+01 0.79417370249E+01 0.85463109183E+01 0.87820805860E+01 0.84566365579E+01
 0.74401310761E+01 0.57280752234E+01 0.34849368009E+01 0.10408459263E+01 -.11694295052E+01
 -.41816954678E+01 -.41816990452E+01 -.31109980402E+01 -.11694291694E+01 0.12913037991E+01
 0.38518138157E+01 0.61223349900E+01 0.78240663719E+01 0.88310105434E+01 0.91655592546E+01
 0.89599251518E+01 0.84051387225E+01 0.77058583773E+01 0.70484071395E+01 0.65484697078E+01
 0.61874493552E+01 0.59322250638E+01 0.57653539040E+01 0.56818034072E+01 0.56818038728E+01
 0.57653540088E+01 0.59322236158E+01 0.61874480564E+01 0.65484703906E+01 0.70484083148E+01
 0.77058575127E+01 0.84051365206E+01 0.89599249336E+01 0.91655628886E+01 0.88310165041E+01
 0.78240707255E+01 0.61223337704E+01 0.38518068137E+01 0.12912967400E+01 -.11694295052E+01
 -.31109923333E+01 -.41816979027E+01 -.32641220002E+01 -.15509942285E+01 0.72772300903E+00
 0.32661930353E+01 0.57334134962E+01 0.78338865175E+01 0.93621737510E+01 0.10236126831E+02
 0.10501426540E+02 0.10308894019E+02 0.98718783443E+01 0.94141497318E+01 0.90827920804E+01
 0.88599504342E+01 0.87087076504E+01 0.86102584207E+01 0.85603344679E+01 0.85603382356E+01
 0.86102693333E+01 0.87087221345E+01 0.88599601083E+01 0.90827893941E+01 0.94141355312E+01
 0.98718613549E+01 0.10308882729E+02 0.10501423178E+02 0.10236128532E+02 0.93621769304E+01
 0.78338893646E+01 0.57334158174E+01 0.32661949161E+01 0.72772380917E+00 -.15509952769E+01
 -.32641241812E+01 -.41816990452E+01 -.32641220002E+01 -.20584596032E+01 -.18645207905E+00
 0.21453835750E+01 0.46637797907E+01 0.70674691280E+01 0.90833571056E+01 0.10523813581E+02
 0.11326303613E+02 0.11562033058E+02 0.11409936840E+02 0.11103068728E+02 0.10855530225E+02
 0.10716680269E+02 0.10639802038E+02 0.10593573291E+02 0.10565864448E+02 0.10556192035E+02
 0.10565873631E+02 0.10593602067E+02 0.10639842641E+02 0.10716702378E+02 0.10855515640E+02
 0.11103034726E+02 0.11409913426E+02 0.11562028419E+02 0.11326304286E+02 0.10523810102E+02
 0.90833545279E+01 0.70674738460E+01 0.46637884846E+01 0.21453886828E+01 -.18645285820E+00
 -.20584629466E+01 -.32641243352E+01 -.36795648050E+01 -.15509942285E+01 -.18645207905E+00
 0.17344898509E+01 0.40325096255E+01 0.64584254685E+01 0.87302116180E+01 0.10594269860E+02
 0.11889797022E+02 0.12591266641E+02 0.12811063219E+02 0.12759020067E+02 0.12672128037E+02
 0.12680336955E+02 0.12742507089E+02 0.12811547512E+02 0.12862048037E+02 0.12886891640E+02
 0.12886877636E+02 0.12862035047E+02 0.12811579139E+02 0.12742575414E+02 0.12680388665E+02
 0.12672129004E+02 0.12758987367E+02 0.12811032868E+02 0.12591253490E+02 0.11889794239E+02
 0.10594269806E+02 0.87302133590E+01 0.64584288004E+01 0.40325126743E+01 0.17344920431E+01
 -.18644972939E+00 -.15509917269E+01 -.22552503613E+01 -.22552515058E+01 0.72772300903E+00
 0.21453835750E+01 0.40325096255E+01 0.62272856845E+01 0.84933936121E+01 0.10565430661E+02
 0.12219844262E+02 0.13342652727E+02 0.13963942955E+02 0.14242055947E+02 0.14401976741E+02
 0.14626430581E+02 0.14902114984E+02 0.15164043850E+02 0.15367782846E+02 0.15492697334E+02
 0.15534226671E+02 0.15492634418E+02 0.15367752114E+02 0.15164117531E+02 0.14902255014E+02
 0.14626532836E+02 0.14401980985E+02 0.14241991805E+02 0.13963879634E+02 0.13342628853E+02
 0.12219850125E+02 0.10565439352E+02 0.84933932757E+01 0.62272828475E+01 0.40325123774E+01
 0.21453901709E+01 0.72772712466E+00 -.13927447703E+00 -.42954815307E+00 -.13927494724E+00
 0.32661930353E+01 0.46637797907E+01 0.64584254685E+01 0.84933936121E+01 0.10541973776E+02
 0.12366376136E+02 0.13794691721E+02 0.14780643418E+02 0.15416544996E+02 0.15890894353E+02
 0.16398594955E+02 0.16962871676E+02 0.17502122545E+02 0.17947930151E+02 0.18258140012E+02
 0.18415150310E+02 0.18415094700E+02 0.18258038127E+02 0.17947912382E+02 0.17502253883E+02
 0.16963082670E+02 0.16398743606E+02 0.15890896900E+02 0.15416443104E+02 0.14780545160E+02
 0.13794660868E+02 0.12366391717E+02 0.10541986331E+02 0.84933901898E+01 0.64584255354E+01
 0.46637901628E+01 0.32661973431E+01 0.23349405427E+01 0.18760246398E+01 0.18760318862E+01
 0.23349499361E+01 0.57334134962E+01 0.70674691280E+01 0.87302116180E+01 0.10565430661E+02
 0.12366376136E+02 0.13944919649E+02 0.15203078715E+02 0.16170409968E+02 0.16985936732E+02
 0.17827356926E+02 0.18742242595E+02 0.19636935060E+02 0.20416166695E+02 0.21008570087E+02
 0.21373009305E+02 0.21494281774E+02 0.21372828733E+02 0.21008362030E+02 0.20416123421E+02
 0.19637130680E+02 0.18742559634E+02 0.17827582163E+02 0.16985950552E+02 0.16170278256E+02
 0.15202955509E+02 0.13944885225E+02 0.12366394699E+02 0.10565441502E+02 0.87302073118E+01
 0.70674721497E+01 0.57334223806E+01 0.47990765910E+01 0.42617055790E+01 0.40883787968E+01
 0.42617180602E+01 0.47990803558E+01 0.78338865175E+01 0.90833571056E+01 0.10594269860E+02
 0.12219844262E+02 0.13794691721E+02 0.15203078715E+02 0.16430203854E+02 0.17566627586E+02
 0.18758057975E+02 0.20057029978E+02 0.21362014400E+02 0.22551727792E+02 0.23504902274E+02
 0.24129000325E+02 0.24425808613E+02 0.24425634982E+02 0.24128592106E+02 0.23504534336E+02
 0.22551662637E+02 0.21362305079E+02 0.20057468084E+02 0.18758349603E+02 0.17566645248E+02
 0.16430058415E+02 0.15202954935E+02 0.13794660308E+02 0.12219853901E+02 0.10594267866E+02
 0.90833504403E+01 0.78338937483E+01 0.69246980563E+01 0.63587072780E+01 0.60945856043E+01
 0.60945913657E+01 0.63587118020E+01 0.69246892869E+01 0.93621737510E+01 0.10523813581E+02
 0.11889797022E+02 0.13342652727E+02 0.14780643418E+02 0.16170409968E+02 0.17566627586E+02
 0.19081461259E+02 0.20756981459E+02 0.22487625135E+02 0.24126659901E+02 0.25459328074E+02
 0.26350195855E+02 0.26826208260E+02 0.26971135147E+02 0.26825833709E+02 0.26349605198E+02
 0.25458829409E+02 0.24126558177E+02 0.22487968951E+02 0.20757491132E+02 0.19081779797E+02
 0.17566638536E+02 0.16170270407E+02 0.14780543317E+02 0.13342629898E+02 0.11889791263E+02
 0.10523800147E+02 0.93621746381E+01 0.84844341960E+01 0.79063954541E+01 0.75926781746E+01
 0.74952563233E+01 0.75926904297E+01 0.79063942686E+01 0.84844196435E+01 0.10236126831E+02
 0.11326303613E+02 0.12591266641E+02 0.13963942955E+02 0.15416544996E+02 0.16985936732E+02
 0.18758057975E+02 0.20756981459E+02 0.22879102155E+02 0.24957894120E+02 0.26684731979E+02
 0.27859261024E+02 0.28511137881E+02 0.28780701223E+02 0.28780555304E+02 0.28510681702E+02
 0.27858572541E+02 0.26684129709E+02 0.24957745700E+02 0.22879454274E+02 0.20757493839E+02
 0.18758352815E+02 0.16985937197E+02 0.15416431873E+02 0.13963877067E+02 0.12591255487E+02
 0.11326296048E+02 0.10236115784E+02 0.93831736126E+01 0.87908612775E+01 0.84374201824E+01
 0.82779271873E+01 0.82779343365E+01 0.84374284198E+01 0.87908580935E+01 0.93831727238E+01
 0.10501426540E+02 0.11562033058E+02 0.12811063219E+02 0.14242055947E+02 0.15890894353E+02
 0.17827356926E+02 0.20057029978E+02 0.22487625135E+02 0.24957894120E+02 0.27099908768E+02