   2   2   0   0
  0.2779610E+02  0.4283936E-09  0.4283936E-09  0.4283936E-09  0.5000000E-15
  1.000000000000000E-004
  CAR 
 unknown system                          
     19.86656683    -11.59062316  301      2.99377117      1.00000000
    -11.591  0.0000E+00  0.0000E+00
    -11.486  0.0000E+00  0.0000E+00
    -11.381  0.0000E+00  0.0000E+00
    -11.276  0.0000E+00  0.0000E+00
    -11.171  0.0000E+00  0.0000E+00
    -11.066  0.0000E+00  0.0000E+00
    -10.961  0.0000E+00  0.0000E+00
    -10.857  0.0000E+00  0.0000E+00
    -10.752  0.0000E+00  0.0000E+00
    -10.647 -0.1335E-41 -0.1400E-42
    -10.542 -0.6624E-26 -0.6946E-27
    -10.437 -0.4450E-14 -0.4667E-15
    -10.332 -0.3798E-06 -0.3982E-07
    -10.227 -0.1883E-02 -0.1975E-03
    -10.123  0.5636E-01  0.5712E-02
    -10.018 -0.1425E-01  0.4218E-02
     -9.913  0.5404E+00  0.6088E-01
     -9.808  0.2593E+00  0.8807E-01
     -9.703 -0.2811E-01  0.8512E-01
     -9.598  0.7037E+00  0.1589E+00
     -9.493  0.1101E+00  0.1705E+00
     -9.389  0.1681E+01  0.3468E+00
     -9.284 -0.2681E-01  0.3439E+00
     -9.179  0.9870E-01  0.3543E+00
     -9.074  0.7498E+00  0.4329E+00
     -8.969  0.1891E+01  0.6312E+00
     -8.864  0.1135E+01  0.7501E+00
     -8.759  0.9084E+00  0.8454E+00
     -8.655  0.9949E+00  0.9497E+00
     -8.550  0.2105E+01  0.1170E+01
     -8.445  0.2926E+01  0.1477E+01
     -8.340  0.5980E+00  0.1540E+01
     -8.235  0.2485E+01  0.1801E+01
     -8.130  0.1936E+01  0.2004E+01
     -8.025 -0.3376E-01  0.2000E+01
     -7.921 -0.1206E-03  0.2000E+01
     -7.816 -0.1709E-10  0.2000E+01
     -7.711  0.0000E+00  0.2000E+01
     -7.606  0.0000E+00  0.2000E+01
     -7.501  0.0000E+00  0.2000E+01
     -7.396  0.0000E+00  0.2000E+01
     -7.291  0.0000E+00  0.2000E+01
     -7.187  0.0000E+00  0.2000E+01
     -7.082  0.0000E+00  0.2000E+01
     -6.977  0.0000E+00  0.2000E+01
     -6.872  0.0000E+00  0.2000E+01
     -6.767  0.0000E+00  0.2000E+01
     -6.662  0.0000E+00  0.2000E+01
     -6.557  0.0000E+00  0.2000E+01
     -6.453  0.0000E+00  0.2000E+01
     -6.348  0.0000E+00  0.2000E+01
     -6.243  0.0000E+00  0.2000E+01
     -6.138  0.0000E+00  0.2000E+01
     -6.033  0.0000E+00  0.2000E+01
     -5.928  0.0000E+00  0.2000E+01
     -5.823  0.0000E+00  0.2000E+01
     -5.719  0.0000E+00  0.2000E+01
     -5.614  0.0000E+00  0.2000E+01
     -5.509  0.0000E+00  0.2000E+01
     -5.404  0.0000E+00  0.2000E+01
     -5.299  0.0000E+00  0.2000E+01
     -5.194  0.0000E+00  0.2000E+01
     -5.089  0.0000E+00  0.2000E+01
     -4.985  0.0000E+00  0.2000E+01
     -4.880  0.0000E+00  0.2000E+01
     -4.775  0.0000E+00  0.2000E+01
     -4.670  0.0000E+00  0.2000E+01
     -4.565  0.0000E+00  0.2000E+01
     -4.460  0.0000E+00  0.2000E+01
     -4.355  0.0000E+00  0.2000E+01
     -4.251  0.0000E+00  0.2000E+01
     -4.146  0.0000E+00  0.2000E+01
     -4.041  0.0000E+00  0.2000E+01
     -3.936  0.0000E+00  0.2000E+01
     -3.831 -0.2851E-34  0.2000E+01
     -3.726 -0.4532E-20  0.2000E+01
     -3.621 -0.9444E-10  0.2000E+01
     -3.517 -0.2304E-03  0.2000E+01
     -3.412  0.2810E-01  0.2003E+01
     -3.307  0.5861E+00  0.2064E+01
     -3.202  0.2513E+01  0.2328E+01
     -3.097  0.3631E+01  0.2709E+01
     -2.992  0.2007E+01  0.2919E+01
     -2.887  0.7453E+00  0.2997E+01
     -2.783  0.5450E+00  0.3054E+01
     -2.678  0.1385E+01  0.3200E+01
     -2.573  0.1382E+01  0.3344E+01
     -2.468 -0.3213E-01  0.3341E+01
     -2.363 -0.2808E-02  0.3341E+01
     -2.258  0.3251E+00  0.3375E+01
     -2.153  0.9993E+00  0.3480E+01
     -2.049  0.1253E+01  0.3611E+01
     -1.944  0.9563E-01  0.3621E+01
     -1.839 -0.6888E-03  0.3621E+01
     -1.734 -0.2360E-03  0.3621E+01
     -1.629  0.2944E-01  0.3624E+01
     -1.524  0.7612E+00  0.3704E+01
     -1.419 -0.1180E-01  0.3703E+01
     -1.315 -0.4444E-04  0.3703E+01
     -1.210 -0.5160E-03  0.3703E+01
     -1.105  0.8593E-01  0.3712E+01
     -1.000  0.1288E+01  0.3847E+01
     -0.895 -0.3927E-01  0.3843E+01
     -0.790 -0.2720E-03  0.3843E+01
     -0.685  0.2031E-01  0.3845E+01
     -0.581  0.1506E+01  0.4003E+01
     -0.476  0.2554E+01  0.4270E+01
     -0.371 -0.7877E-01  0.4262E+01
     -0.266  0.4094E+00  0.4305E+01
     -0.161  0.3484E+01  0.4670E+01
     -0.056  0.7949E+00  0.4754E+01
      0.049 -0.1482E-01  0.4752E+01
      0.153 -0.3452E-01  0.4749E+01
      0.258  0.1478E+01  0.4903E+01
      0.363  0.3787E+01  0.5301E+01
      0.468  0.1137E+01  0.5420E+01
      0.573  0.1312E+01  0.5557E+01
      0.678  0.1964E+01  0.5763E+01
      0.783  0.1129E+01  0.5882E+01
      0.887  0.1006E+01  0.5987E+01
      0.992  0.5074E+01  0.6519E+01
      1.097  0.4635E+00  0.6568E+01
      1.202  0.1456E+00  0.6583E+01
      1.307 -0.6520E-01  0.6576E+01
      1.412  0.2779E+01  0.6868E+01
      1.517  0.2470E+01  0.7127E+01
      1.621  0.1479E+01  0.7282E+01
      1.726  0.1741E+01  0.7465E+01
      1.831  0.4484E-01  0.7469E+01
      1.936  0.1765E+00  0.7488E+01
      2.041  0.2233E+01  0.7722E+01
      2.146  0.1372E+00  0.7736E+01
      2.251  0.6305E+00  0.7802E+01
      2.355  0.1519E+00  0.7818E+01
      2.460  0.4778E+00  0.7868E+01
      2.565  0.6907E+00  0.7941E+01
      2.670  0.4867E-01  0.7946E+01
      2.775  0.4164E+00  0.7990E+01
      2.880 -0.1534E-01  0.7988E+01
      2.985  0.1084E+00  0.7999E+01
      3.089  0.6259E-02  0.8000E+01
      3.194 -0.3836E-04  0.8000E+01
      3.299 -0.6323E-04  0.8000E+01
      3.404  0.1036E-01  0.8001E+01
      3.509  0.4636E-01  0.8006E+01
      3.614 -0.1055E-02  0.8006E+01
      3.719 -0.3265E-07  0.8006E+01
      3.823 -0.8643E-16  0.8006E+01
      3.928  0.0000E+00  0.8006E+01
      4.033  0.0000E+00  0.8006E+01
      4.138 -0.2421E-32  0.8006E+01
      4.243 -0.1407E-18  0.8006E+01
      4.348 -0.1058E-08  0.8006E+01
      4.453 -0.8675E-03  0.8006E+01
      4.557  0.1215E+00  0.8018E+01
      4.662  0.3141E+00  0.8051E+01
      4.767  0.5458E+00  0.8109E+01
      4.872  0.3622E+00  0.8147E+01
      4.977 -0.1438E-01  0.8145E+01
      5.082  0.2755E+00  0.8174E+01
      5.187  0.6469E-01  0.8181E+01
      5.291 -0.1741E-01  0.8179E+01
      5.396  0.6757E+00  0.8250E+01
      5.501  0.1242E+00  0.8263E+01
      5.606  0.7460E+00  0.8341E+01
      5.711  0.4018E+01  0.8762E+01
      5.816  0.2883E+01  0.9065E+01
      5.921  0.1320E+01  0.9203E+01
      6.025  0.5990E+00  0.9266E+01
      6.130  0.5906E-01  0.9272E+01
      6.235  0.6060E+00  0.9336E+01
      6.340  0.8287E+00  0.9423E+01
      6.445  0.1017E+01  0.9529E+01
      6.550  0.4969E+00  0.9581E+01
      6.655  0.2489E-01  0.9584E+01
      6.759  0.4248E+01  0.1003E+02
      6.864  0.4056E+01  0.1045E+02
      6.969  0.1503E+01  0.1061E+02
      7.074  0.1187E+01  0.1074E+02
      7.179 -0.2083E-01  0.1073E+02
      7.284  0.4747E-01  0.1074E+02
      7.389  0.9317E-02  0.1074E+02
      7.493 -0.1909E-02  0.1074E+02
      7.598  0.2350E+00  0.1076E+02
      7.703  0.2786E+01  0.1106E+02
      7.808  0.1922E+01  0.1126E+02
      7.913  0.6905E+00  0.1133E+02
      8.018  0.1392E+01  0.1148E+02
      8.123  0.6928E+00  0.1155E+02
      8.227  0.1309E+01  0.1169E+02
      8.332  0.2370E+01  0.1194E+02
      8.437  0.1769E+01  0.1212E+02
      8.542  0.1099E+01  0.1224E+02
      8.647  0.1181E+01  0.1236E+02
      8.752  0.1887E+01  0.1256E+02
      8.857  0.5060E+00  0.1261E+02
      8.961  0.2093E+01  0.1283E+02
      9.066  0.2218E+01  0.1306E+02
      9.171  0.1149E+01  0.1318E+02
      9.276  0.3053E+01  0.1350E+02
      9.381  0.1803E+01  0.1369E+02
      9.486  0.1546E+01  0.1385E+02
      9.591  0.2924E+00  0.1389E+02
      9.695  0.1008E+01  0.1399E+02
      9.800  0.1401E+01  0.1414E+02
      9.905  0.6247E+00  0.1420E+02
     10.010  0.1196E+01  0.1433E+02
     10.115  0.1331E+01  0.1447E+02
     10.220  0.1427E+01  0.1462E+02
     10.325  0.1414E+01  0.1477E+02
     10.429  0.5238E+00  0.1482E+02
     10.534  0.9457E+00  0.1492E+02
     10.639  0.1618E+01  0.1509E+02
     10.744  0.5115E+00  0.1514E+02
     10.849  0.1462E+01  0.1530E+02
     10.954  0.2392E+01  0.1555E+02
     11.059  0.1526E+01  0.1571E+02
     11.163  0.1541E+00  0.1572E+02
     11.268  0.1336E+01  0.1586E+02
     11.373  0.1881E+00  0.1588E+02
     11.478  0.5078E+00  0.1594E+02
     11.583 -0.1273E-01  0.1594E+02
     11.688 -0.3941E-01  0.1593E+02
     11.793  0.1930E+01  0.1613E+02
     11.897  0.9248E+00  0.1623E+02
     12.002  0.1916E+01  0.1643E+02
     12.107  0.2112E+01  0.1665E+02
     12.212  0.2316E+01  0.1690E+02
     12.317  0.1214E+01  0.1702E+02
     12.422  0.2046E+01  0.1724E+02
     12.527  0.2458E+01  0.1750E+02
     12.631  0.1017E+01  0.1760E+02
     12.736  0.9746E+00  0.1770E+02
     12.841  0.1209E+01  0.1783E+02
     12.946  0.3615E+01  0.1821E+02
     13.051  0.1039E+01  0.1832E+02
     13.156  0.1277E+01  0.1845E+02
     13.261  0.6982E-01  0.1846E+02
     13.365  0.1257E-01  0.1846E+02
     13.470  0.6833E+00  0.1853E+02
     13.575  0.1002E+01  0.1864E+02
     13.680  0.1413E+01  0.1879E+02
     13.785  0.2377E+01  0.1904E+02
     13.890  0.1937E+01  0.1924E+02
     13.995  0.1086E+01  0.1935E+02
     14.099  0.7841E+00  0.1944E+02
     14.204  0.1322E+01  0.1957E+02
     14.309  0.1448E+01  0.1973E+02
     14.414  0.1192E+00  0.1974E+02
     14.519  0.6831E+00  0.1981E+02
     14.624  0.7918E+00  0.1989E+02
     14.729  0.1172E+01  0.2002E+02
     14.833  0.3643E+00  0.2005E+02
     14.938  0.1649E+01  0.2023E+02
     15.043  0.2355E-02  0.2023E+02
     15.148  0.1543E+01  0.2039E+02
     15.253  0.8454E+00  0.2048E+02
     15.358  0.1008E+01  0.2058E+02
     15.463 -0.3536E-01  0.2058E+02
     15.567  0.2769E+00  0.2061E+02
     15.672  0.1749E+00  0.2063E+02
     15.777  0.5435E-01  0.2063E+02
     15.882  0.4276E+00  0.2068E+02
     15.987  0.8535E+00  0.2077E+02
     16.092  0.4435E-01  0.2077E+02
     16.197  0.3528E+00  0.2081E+02
     16.301 -0.4246E-01  0.2080E+02
     16.406  0.1052E+01  0.2091E+02
     16.511  0.1506E+00  0.2093E+02
     16.616 -0.5410E-02  0.2093E+02
     16.721  0.3058E+00  0.2096E+02
     16.826  0.3693E+00  0.2100E+02
     16.931 -0.4646E-02  0.2100E+02
     17.035 -0.2663E-07  0.2100E+02
     17.140  0.0000E+00  0.2100E+02
     17.245  0.0000E+00  0.2100E+02
     17.350  0.0000E+00  0.2100E+02
     17.455  0.0000E+00  0.2100E+02
     17.560  0.0000E+00  0.2100E+02
     17.665  0.0000E+00  0.2100E+02
     17.769  0.0000E+00  0.2100E+02
     17.874  0.0000E+00  0.2100E+02
     17.979  0.0000E+00  0.2100E+02
     18.084  0.0000E+00  0.2100E+02
     18.189  0.0000E+00  0.2100E+02
     18.294  0.0000E+00  0.2100E+02
     18.399  0.0000E+00  0.2100E+02
     18.503  0.0000E+00  0.2100E+02
     18.608  0.0000E+00  0.2100E+02
     18.713  0.0000E+00  0.2100E+02
     18.818  0.0000E+00  0.2100E+02
     18.923  0.0000E+00  0.2100E+02
     19.028  0.0000E+00  0.2100E+02
     19.133  0.0000E+00  0.2100E+02
     19.237  0.0000E+00  0.2100E+02
     19.342  0.0000E+00  0.2100E+02
     19.447  0.0000E+00  0.2100E+02
     19.552  0.0000E+00  0.2100E+02
     19.657  0.0000E+00  0.2100E+02
     19.762  0.0000E+00  0.2100E+02
     19.867  0.0000E+00  0.2100E+02
