   2   2   1   0
  0.2779610E+02  0.4283936E-09  0.4283936E-09  0.4283936E-09  0.5000000E-15
  1.000000000000000E-004
  CAR 
 unknown system                          
     21.61329299    -11.65835577  301      3.18391879      1.00000000
    -11.658  0.0000E+00  0.0000E+00
    -11.547  0.0000E+00  0.0000E+00
    -11.437  0.0000E+00  0.0000E+00
    -11.326  0.0000E+00  0.0000E+00
    -11.215  0.0000E+00  0.0000E+00
    -11.104  0.0000E+00  0.0000E+00
    -10.993  0.0000E+00  0.0000E+00
    -10.882  0.0000E+00  0.0000E+00
    -10.771  0.0000E+00  0.0000E+00
    -10.660  0.0000E+00  0.0000E+00
    -10.549  0.0000E+00  0.0000E+00
    -10.438  0.2919E-17  0.3237E-18
    -10.327  0.7493E-08  0.8310E-09
    -10.217  0.1207E-02  0.1339E-03
    -10.106  0.4469E-01  0.5091E-02
     -9.995  0.4310E-01  0.9870E-02
     -9.884  0.5092E+00  0.6635E-01
     -9.773  0.1900E+00  0.8742E-01
     -9.662  0.1214E+00  0.1009E+00
     -9.551  0.5051E+00  0.1569E+00
     -9.440  0.8519E+00  0.2514E+00
     -9.329  0.8305E+00  0.3435E+00
     -9.218  0.1318E-01  0.3449E+00
     -9.108  0.3383E+00  0.3825E+00
     -8.997  0.1440E+01  0.5422E+00
     -8.886  0.1261E+01  0.6820E+00
     -8.775  0.1427E+01  0.8403E+00
     -8.664  0.4635E+00  0.8917E+00
     -8.553  0.2303E+01  0.1147E+01
     -8.442  0.2431E+01  0.1417E+01
     -8.331  0.1021E+01  0.1530E+01
     -8.220  0.2341E+01  0.1790E+01
     -8.109  0.1767E+01  0.1986E+01
     -7.998  0.1299E+00  0.2000E+01
     -7.888  0.9707E-05  0.2000E+01
     -7.777  0.1014E-12  0.2000E+01
     -7.666  0.0000E+00  0.2000E+01
     -7.555  0.0000E+00  0.2000E+01
     -7.444  0.0000E+00  0.2000E+01
     -7.333  0.0000E+00  0.2000E+01
     -7.222  0.0000E+00  0.2000E+01
     -7.111  0.0000E+00  0.2000E+01
     -7.000  0.0000E+00  0.2000E+01
     -6.889  0.0000E+00  0.2000E+01
     -6.779  0.0000E+00  0.2000E+01
     -6.668  0.0000E+00  0.2000E+01
     -6.557  0.0000E+00  0.2000E+01
     -6.446  0.0000E+00  0.2000E+01
     -6.335  0.0000E+00  0.2000E+01
     -6.224  0.0000E+00  0.2000E+01
     -6.113  0.0000E+00  0.2000E+01
     -6.002  0.0000E+00  0.2000E+01
     -5.891  0.0000E+00  0.2000E+01
     -5.780  0.0000E+00  0.2000E+01
     -5.669  0.0000E+00  0.2000E+01
     -5.559  0.0000E+00  0.2000E+01
     -5.448  0.0000E+00  0.2000E+01
     -5.337  0.0000E+00  0.2000E+01
     -5.226  0.0000E+00  0.2000E+01
     -5.115  0.0000E+00  0.2000E+01
     -5.004  0.0000E+00  0.2000E+01
     -4.893  0.0000E+00  0.2000E+01
     -4.782  0.0000E+00  0.2000E+01
     -4.671  0.0000E+00  0.2000E+01
     -4.560  0.0000E+00  0.2000E+01
     -4.449  0.0000E+00  0.2000E+01
     -4.339  0.0000E+00  0.2000E+01
     -4.228  0.0000E+00  0.2000E+01
     -4.117  0.0000E+00  0.2000E+01
     -4.006  0.0000E+00  0.2000E+01
     -3.895  0.0000E+00  0.2000E+01
     -3.784  0.0000E+00  0.2000E+01
     -3.673  0.8563E-14  0.2000E+01
     -3.562  0.1850E-05  0.2000E+01
     -3.451  0.3782E-01  0.2004E+01
     -3.340  0.5511E+00  0.2065E+01
     -3.230  0.2092E+01  0.2297E+01
     -3.119  0.3502E+01  0.2686E+01
     -3.008  0.1991E+01  0.2907E+01
     -2.897  0.8791E+00  0.3004E+01
     -2.786  0.5601E+00  0.3066E+01
     -2.675  0.1409E+01  0.3222E+01
     -2.564  0.1054E+01  0.3339E+01
     -2.453  0.1681E-01  0.3341E+01
     -2.342  0.7274E-02  0.3342E+01
     -2.231  0.8540E+00  0.3437E+01
     -2.120  0.7277E+00  0.3517E+01
     -2.010  0.9217E+00  0.3620E+01
     -1.899  0.1301E-01  0.3621E+01
     -1.788  0.1023E-06  0.3621E+01
     -1.677  0.9632E-02  0.3622E+01
     -1.566  0.5579E+00  0.3684E+01
     -1.455  0.1684E+00  0.3703E+01
     -1.344  0.7421E-04  0.3703E+01
     -1.233  0.1026E-04  0.3703E+01
     -1.122  0.1499E+00  0.3719E+01
     -1.011  0.1080E+01  0.3839E+01
     -0.901  0.3235E-01  0.3843E+01
     -0.790  0.3191E-05  0.3843E+01
     -0.679  0.8508E-01  0.3852E+01
     -0.568  0.1584E+01  0.4028E+01
     -0.457  0.2044E+01  0.4254E+01
     -0.346  0.7412E-01  0.4263E+01
     -0.235  0.1138E+01  0.4389E+01
     -0.124  0.2772E+01  0.4696E+01
     -0.013  0.5051E+00  0.4752E+01
      0.098  0.5325E-03  0.4752E+01
      0.209  0.2232E+00  0.4777E+01
      0.319  0.2729E+01  0.5080E+01
      0.430  0.2459E+01  0.5352E+01
      0.541  0.1159E+01  0.5481E+01
      0.652  0.1717E+01  0.5671E+01
      0.763  0.1454E+01  0.5833E+01
      0.874  0.1266E+01  0.5973E+01
      0.985  0.3975E+01  0.6414E+01
      1.096  0.1302E+01  0.6558E+01
      1.207  0.2225E+00  0.6583E+01
      1.318  0.2768E-01  0.6586E+01
      1.428  0.2375E+01  0.6849E+01
      1.539  0.2661E+01  0.7145E+01
      1.650  0.1377E+01  0.7297E+01
      1.761  0.1458E+01  0.7459E+01
      1.872  0.9721E-01  0.7470E+01
      1.983  0.8515E+00  0.7564E+01
      2.094  0.1486E+01  0.7729E+01
      2.205  0.1716E+00  0.7748E+01
      2.316  0.6138E+00  0.7816E+01
      2.427  0.1223E+00  0.7830E+01
      2.538  0.8415E+00  0.7923E+01
      2.648  0.1762E+00  0.7943E+01
      2.759  0.3556E+00  0.7982E+01
      2.870  0.5769E-01  0.7988E+01
      2.981  0.6056E-01  0.7995E+01
      3.092  0.4438E-01  0.8000E+01
      3.203  0.4526E-04  0.8000E+01
      3.314  0.1138E-02  0.8000E+01
      3.425  0.4448E-01  0.8005E+01
      3.536  0.6953E-02  0.8006E+01
      3.647  0.5552E-06  0.8006E+01
      3.758  0.3876E-14  0.8006E+01
      3.868  0.0000E+00  0.8006E+01
      3.979  0.0000E+00  0.8006E+01
      4.090  0.0000E+00  0.8006E+01
      4.201  0.0000E+00  0.8006E+01
      4.312  0.3965E-11  0.8006E+01
      4.423  0.7288E-04  0.8006E+01
      4.534  0.1386E+00  0.8021E+01
      4.645  0.3023E+00  0.8055E+01
      4.756  0.5411E+00  0.8115E+01
      4.867  0.2790E+00  0.8146E+01
      4.977  0.3633E-02  0.8146E+01
      5.088  0.2428E+00  0.8173E+01
      5.199  0.6983E-01  0.8181E+01
      5.310  0.8530E-01  0.8190E+01
      5.421  0.5310E+00  0.8249E+01
      5.532  0.3461E+00  0.8287E+01
      5.643  0.2233E+01  0.8535E+01
      5.754  0.3242E+01  0.8895E+01
      5.865  0.2186E+01  0.9137E+01
      5.976  0.1127E+01  0.9262E+01
      6.087  0.5708E-01  0.9268E+01
      6.197  0.5394E+00  0.9328E+01
      6.308  0.6018E+00  0.9395E+01
      6.419  0.1045E+01  0.9511E+01
      6.530  0.6041E+00  0.9578E+01
      6.641  0.2461E+00  0.9605E+01
      6.752  0.3807E+01  0.1003E+02
      6.863  0.3767E+01  0.1045E+02
      6.974  0.1785E+01  0.1064E+02
      7.085  0.8256E+00  0.1073E+02
      7.196  0.6004E-02  0.1074E+02
      7.306  0.4602E-01  0.1074E+02
      7.417  0.1993E-02  0.1074E+02
      7.528  0.8268E-02  0.1074E+02
      7.639  0.1234E+01  0.1088E+02
      7.750  0.2469E+01  0.1115E+02
      7.861  0.1265E+01  0.1129E+02
      7.972  0.1378E+01  0.1145E+02
      8.083  0.7215E+00  0.1153E+02
      8.194  0.9458E+00  0.1163E+02
      8.305  0.2202E+01  0.1187E+02
      8.416  0.1753E+01  0.1207E+02
      8.526  0.1469E+01  0.1223E+02
      8.637  0.1218E+01  0.1237E+02
      8.748  0.1639E+01  0.1255E+02
      8.859  0.7096E+00  0.1263E+02
      8.970  0.1947E+01  0.1284E+02
      9.081  0.2054E+01  0.1307E+02
      9.192  0.1834E+01  0.1327E+02
      9.303  0.2673E+01  0.1357E+02
      9.414  0.1466E+01  0.1373E+02
      9.525  0.1139E+01  0.1386E+02
      9.635  0.4810E+00  0.1391E+02
      9.746  0.1614E+01  0.1409E+02
      9.857  0.8186E+00  0.1418E+02
      9.968  0.7222E+00  0.1426E+02
     10.079  0.1473E+01  0.1443E+02
     10.190  0.1356E+01  0.1458E+02
     10.301  0.1464E+01  0.1474E+02
     10.412  0.6622E+00  0.1481E+02
     10.523  0.8829E+00  0.1491E+02
     10.634  0.1531E+01  0.1508E+02
     10.745  0.7821E+00  0.1517E+02
     10.855  0.1417E+01  0.1532E+02
     10.966  0.2102E+01  0.1556E+02
     11.077  0.1396E+01  0.1571E+02
     11.188  0.5037E+00  0.1577E+02
     11.299  0.8396E+00  0.1586E+02
     11.410  0.4513E+00  0.1591E+02
     11.521  0.2231E+00  0.1594E+02
     11.632  0.9408E-03  0.1594E+02
     11.743  0.5397E+00  0.1600E+02
     11.854  0.1944E+01  0.1621E+02
     11.965  0.1117E+01  0.1634E+02
     12.075  0.2597E+01  0.1662E+02
     12.186  0.2121E+01  0.1686E+02
     12.297  0.1317E+01  0.1700E+02
     12.408  0.2198E+01  0.1725E+02
     12.519  0.2102E+01  0.1748E+02
     12.630  0.1185E+01  0.1761E+02
     12.741  0.1018E+01  0.1773E+02
     12.852  0.1598E+01  0.1790E+02
     12.963  0.2831E+01  0.1822E+02
     13.074  0.1264E+01  0.1836E+02
     13.184  0.8603E+00  0.1845E+02
     13.295  0.9721E-01  0.1846E+02
     13.406  0.5431E+00  0.1852E+02
     13.517  0.9147E+00  0.1862E+02
     13.628  0.1836E+01  0.1883E+02
     13.739  0.9358E+00  0.1893E+02
     13.850  0.2670E+01  0.1923E+02
     13.961  0.1129E+01  0.1935E+02
     14.072  0.1278E+01  0.1950E+02
     14.183  0.8098E+00  0.1959E+02
     14.294  0.1069E+01  0.1970E+02
     14.404  0.4445E+00  0.1975E+02
     14.515  0.8776E+00  0.1985E+02
     14.626  0.1487E+01  0.2002E+02
     14.737  0.6300E+00  0.2009E+02
     14.848  0.7454E+00  0.2017E+02
     14.959  0.5586E+00  0.2023E+02
     15.070  0.5796E+00  0.2029E+02
     15.181  0.2591E+01  0.2058E+02
     15.292  0.3018E+00  0.2062E+02
     15.403  0.7242E-03  0.2062E+02
     15.513  0.8148E-04  0.2062E+02
     15.624  0.1507E+00  0.2063E+02
     15.735  0.6312E+00  0.2070E+02
     15.846  0.5370E+00  0.2076E+02
     15.957  0.1014E+00  0.2077E+02
     16.068  0.3151E+00  0.2081E+02
     16.179  0.9227E+00  0.2091E+02
     16.290  0.8450E-01  0.2092E+02
     16.401  0.6826E+00  0.2100E+02
     16.512  0.4461E-01  0.2100E+02
     16.623  0.2292E-05  0.2100E+02
     16.733  0.1678E-13  0.2100E+02
     16.844  0.0000E+00  0.2100E+02
     16.955  0.0000E+00  0.2100E+02
     17.066  0.0000E+00  0.2100E+02
     17.177  0.0000E+00  0.2100E+02
     17.288  0.0000E+00  0.2100E+02
     17.399  0.0000E+00  0.2100E+02
     17.510  0.0000E+00  0.2100E+02
     17.621  0.0000E+00  0.2100E+02
     17.732  0.0000E+00  0.2100E+02
     17.843  0.0000E+00  0.2100E+02
     17.953  0.0000E+00  0.2100E+02
     18.064  0.0000E+00  0.2100E+02
     18.175  0.0000E+00  0.2100E+02
     18.286  0.0000E+00  0.2100E+02
     18.397  0.0000E+00  0.2100E+02
     18.508  0.0000E+00  0.2100E+02
     18.619  0.0000E+00  0.2100E+02
     18.730  0.0000E+00  0.2100E+02
     18.841  0.0000E+00  0.2100E+02
     18.952  0.0000E+00  0.2100E+02
     19.062  0.0000E+00  0.2100E+02
     19.173  0.0000E+00  0.2100E+02
     19.284  0.0000E+00  0.2100E+02
     19.395  0.0000E+00  0.2100E+02
     19.506  0.0000E+00  0.2100E+02
     19.617  0.0000E+00  0.2100E+02
     19.728  0.0000E+00  0.2100E+02
     19.839  0.0000E+00  0.2100E+02
     19.950  0.0000E+00  0.2100E+02
     20.061  0.0000E+00  0.2100E+02
     20.172  0.0000E+00  0.2100E+02
     20.282  0.0000E+00  0.2100E+02
     20.393  0.0000E+00  0.2100E+02
     20.504  0.0000E+00  0.2100E+02
     20.615  0.0000E+00  0.2100E+02
     20.726  0.0000E+00  0.2100E+02
     20.837  0.0000E+00  0.2100E+02
     20.948  0.0000E+00  0.2100E+02
     21.059  0.0000E+00  0.2100E+02
     21.170  0.0000E+00  0.2100E+02
     21.281  0.0000E+00  0.2100E+02
     21.391  0.0000E+00  0.2100E+02
     21.502  0.0000E+00  0.2100E+02
     21.613  0.0000E+00  0.2100E+02
     21.61329299    -11.65835577  301      3.18391879      1.00000000
    -11.658  0.0000E+00  0.0000E+00  0.0000E+00  0.0000E+00  0.0000E+00  0.0000E+00  0.0000E+00  0.0000E+00  0.0000E+00  0.0000E+00  0.0000E+00  0.0000E+00  0.0000E+00  0.0000E+00  0.0000E+00  0.0000E+00  0.0000E+00  0.0000E+00  0.0000E+00  0.0000E+00  0.0000E+00  0.0000E+00  0.0000E+00  0.0000E+00  0.0000E+00  0.0000E+00  0.0000E+00  0.0000E+00  0.0000E+00  0.0000E+00  0.0000E+00  0.0000E+00  0.0000E+00  0.0000E+00  0.0000E+00  0.0000E+00
    -11.547  0.0000E+00  0.0000E+00  0.0000E+00  0.0000E+00  0.0000E+00  0.0000E+00  0.0000E+00  0.0000E+00  0.0000E+00  0.0000E+00  0.0000E+00  0.0000E+00  0.0000E+00  0.0000E+00  0.0000E+00  0.0000E+00  0.0000E+00  0.0000E+00  0.0000E+00  0.0000E+00  0.0000E+00  0.0000E+00  0.0000E+00  0.0000E+00  0.0000E+00  0.0000E+00  0.0000E+00  0.0000E+00  0.0000E+00  0.0000E+00  0.0000E+00  0.0000E+00  0.0000E+00  0.0000E+00  0.0000E+00  0.0000E+00
    -11.437  0.0000E+00  0.0000E+00  0.0000E+00  0.0000E+00  0.0000E+00  0.0000E+00  0.0000E+00  0.0000E+00  0.0000E+00  0.0000E+00  0.0000E+00  0.0000E+00  0.0000E+00  0.0000E+00  0.0000E+00  0.0000E+00  0.0000E+00  0.0000E+00  0.0000E+00  0.0000E+00  0.0000E+00  0.0000E+00  0.0000E+00  0.0000E+00  0.0000E+00  0.0000E+00  0.0000E+00  0.0000E+00  0.0000E+00  0.0000E+00  0.0000E+00  0.0000E+00  0.0000E+00  0.0000E+00  0.0000E+00  0.0000E+00
    -11.326  0.0000E+00  0.0000E+00  0.0000E+00  0.0000E+00  0.0000E+00  0.0000E+00  0.0000E+00  0.0000E+00  0.0000E+00  0.0000E+00  0.0000E+00  0.0000E+00  0.0000E+00  0.0000E+00  0.0000E+00  0.0000E+00  0.0000E+00  0.0000E+00  0.0000E+00  0.0000E+00  0.0000E+00  0.0000E+00  0.0000E+00  0.0000E+00  0.0000E+00  0.0000E+00  0.0000E+00  0.0000E+00  0.0000E+00  0.0000E+00  0.0000E+00  0.0000E+00  0.0000E+00  0.0000E+00  0.0000E+00  0.0000E+00
    -11.215  0.0000E+00  0.0000E+00  0.0000E+00  0.0000E+00  0.0000E+00  0.0000E+00  0.0000E+00  0.0000E+00  0.0000E+00  0.0000E+00  0.0000E+00  0.0000E+00  0.0000E+00  0.0000E+00  0.0000E+00  0.0000E+00  0.0000E+00  0.0000E+00  0.0000E+00  0.0000E+00  0.0000E+00  0.0000E+00  0.0000E+00  0.0000E+00  0.0000E+00  0.0000E+00  0.0000E+00  0.0000E+00  0.0000E+00  0.0000E+00  0.0000E+00  0.0000E+00  0.0000E+00  0.0000E+00  0.0000E+00  0.0000E+00
    -11.104  0.0000E+00  0.0000E+00  0.0000E+00  0.0000E+00  0.0000E+00  0.0000E+00  0.0000E+00  0.0000E+00  0.0000E+00  0.0000E+00  0.0000E+00  0.0000E+00  0.0000E+00  0.0000E+00  0.0000E+00  0.0000E+00  0.0000E+00  0.0000E+00  0.0000E+00  0.0000E+00  0.0000E+00  0.0000E+00  0.0000E+00  0.0000E+00  0.0000E+00  0.0000E+00  0.0000E+00  0.0000E+00  0.0000E+00  0.0000E+00  0.0000E+00  0.0000E+00  0.0000E+00  0.0000E+00  0.0000E+00  0.0000E+00
    -10.993  0.0000E+00  0.0000E+00  0.0000E+00  0.0000E+00  0.0000E+00  0.0000E+00  0.0000E+00  0.0000E+00  0.0000E+00  0.0000E+00  0.0000E+00  0.0000E+00  0.0000E+00  0.0000E+00  0.0000E+00  0.0000E+00  0.0000E+00  0.0000E+00  0.0000E+00  0.0000E+00  0.0000E+00  0.0000E+00  0.0000E+00  0.0000E+00  0.0000E+00  0.0000E+00  0.0000E+00  0.0000E+00  0.0000E+00  0.0000E+00  0.0000E+00  0.0000E+00  0.0000E+00  0.0000E+00  0.0000E+00  0.0000E+00
    -10.882  0.0000E+00  0.0000E+00  0.0000E+00  0.0000E+00  0.0000E+00  0.0000E+00  0.0000E+00  0.0000E+00  0.0000E+00  0.0000E+00  0.0000E+00  0.0000E+00  0.0000E+00  0.0000E+00  0.0000E+00  0.0000E+00  0.0000E+00  0.0000E+00  0.0000E+00  0.0000E+00  0.0000E+00  0.0000E+00  0.0000E+00  0.0000E+00  0.0000E+00  0.0000E+00  0.0000E+00  0.0000E+00  0.0000E+00  0.0000E+00  0.0000E+00  0.0000E+00  0.0000E+00  0.0000E+00  0.0000E+00  0.0000E+00
    -10.771  0.0000E+00  0.0000E+00  0.0000E+00  0.0000E+00  0.0000E+00  0.0000E+00  0.0000E+00  0.0000E+00  0.0000E+00  0.0000E+00  0.0000E+00  0.0000E+00  0.0000E+00  0.0000E+00  0.0000E+00  0.0000E+00  0.0000E+00  0.0000E+00  0.0000E+00  0.0000E+00  0.0000E+00  0.0000E+00  0.0000E+00  0.0000E+00  0.0000E+00  0.0000E+00  0.0000E+00  0.0000E+00  0.0000E+00  0.0000E+00  0.0000E+00  0.0000E+00  0.0000E+00  0.0000E+00  0.0000E+00  0.0000E+00
    -10.660  0.0000E+00  0.0000E+00  0.0000E+00  0.0000E+00  0.0000E+00  0.0000E+00  0.0000E+00  0.0000E+00  0.0000E+00  0.0000E+00  0.0000E+00  0.0000E+00  0.0000E+00  0.0000E+00  0.0000E+00  0.0000E+00  0.0000E+00  0.0000E+00  0.0000E+00  0.0000E+00  0.0000E+00  0.0000E+00  0.0000E+00  0.0000E+00  0.0000E+00  0.0000E+00  0.0000E+00  0.0000E+00  0.0000E+00  0.0000E+00  0.0000E+00  0.0000E+00  0.0000E+00  0.0000E+00  0.0000E+00  0.0000E+00
    -10.549  0.0000E+00  0.0000E+00  0.0000E+00  0.0000E+00  0.0000E+00  0.0000E+00  0.0000E+00  0.0000E+00  0.0000E+00  0.0000E+00  0.0000E+00  0.0000E+00  0.0000E+00  0.0000E+00  0.0000E+00  0.0000E+00  0.0000E+00  0.0000E+00  0.0000E+00  0.0000E+00  0.0000E+00  0.0000E+00  0.0000E+00  0.0000E+00  0.0000E+00  0.0000E+00  0.0000E+00  0.0000E+00  0.0000E+00  0.0000E+00  0.0000E+00  0.0000E+00  0.0000E+00  0.0000E+00  0.0000E+00  0.0000E+00
    -10.438  0.8523E-18 -0.3189E-26 -0.3278E-25 -0.9509E-25  0.1687E-31 -0.4588E-32  0.2016E-32  0.4336E-32  0.1510E-31  0.2092E-32 -0.8696E-33  0.3279E-33  0.1532E-31  0.3733E-32  0.1497E-32 -0.4540E-32  0.8932E-33  0.5794E-35 -0.2115E-33 -0.4433E-34  0.7854E-33  0.3789E-33 -0.2534E-33 -0.2293E-33  0.1548E-31  0.5900E-32  0.3583E-32  0.1192E-32  0.7584E-33  0.1897E-33 -0.2094E-33  0.1178E-33  0.1361E-31  0.6227E-32 -0.2458E-32  0.1103E-32
    -10.327  0.2188E-08 -0.9397E-16 -0.8502E-15  0.5126E-14  0.4331E-22 -0.1178E-22  0.5177E-23  0.1113E-22  0.3877E-22  0.5372E-23 -0.2233E-23  0.8418E-24  0.3934E-22  0.9585E-23  0.3844E-23 -0.1166E-22  0.2293E-23  0.1488E-25 -0.5430E-24 -0.1138E-24  0.2017E-23  0.9729E-24 -0.6506E-24 -0.5888E-24  0.3973E-22  0.1515E-22  0.9199E-23  0.3061E-23  0.1947E-23  0.4871E-24 -0.5376E-24  0.3024E-24  0.3495E-22  0.1599E-22 -0.6310E-23  0.2832E-23
    -10.217  0.3525E-03 -0.7479E-11 -0.6857E-10  0.3463E-09  0.2392E-16 -0.1897E-17  0.8339E-18  0.1793E-17  0.2319E-16  0.8652E-18 -0.3596E-18  0.1356E-18  0.2328E-16  0.1544E-17  0.6191E-18 -0.1878E-17  0.2836E-17  0.2394E-20 -0.8747E-19 -0.1833E-19  0.2792E-17  0.1567E-18 -0.1048E-18 -0.9483E-19  0.6400E-17  0.2440E-17  0.1482E-17  0.4930E-18  0.2780E-17  0.7846E-19 -0.8659E-19  0.4871E-19  0.5630E-17  0.2575E-17 -0.1016E-17  0.4561E-18
    -10.106  0.1305E-01 -0.6628E-10 -0.6576E-09 -0.3656E-09  0.5201E-08 -0.3536E-15 -0.4166E-14  0.1071E-13  0.5201E-08 -0.7347E-15  0.2552E-14  0.1054E-13  0.5201E-08 -0.1474E-14 -0.4346E-14  0.1272E-13  0.7574E-09 -0.4848E-15  0.6795E-15  0.1235E-14  0.7574E-09 -0.6829E-15 -0.1004E-14  0.1718E-14  0.9982E-13  0.9910E-16  0.4384E-16  0.1075E-16  0.7574E-09 -0.1071E-14 -0.4417E-15  0.1515E-14  0.9972E-13  0.1051E-15 -0.3629E-16  0.1232E-16
     -9.995  0.1187E-01 -0.1082E-09 -0.2567E-08  0.4954E-08  0.1328E-03  0.1824E-10 -0.6213E-10  0.1140E-09  0.1354E-03 -0.1673E-10  0.1012E-09  0.1143E-09  0.1328E-03 -0.2290E-10 -0.5558E-10  0.1632E-09  0.1970E-04 -0.1342E-10  0.2037E-10  0.8761E-11  0.1934E-04 -0.1551E-10 -0.1548E-10  0.1609E-10  0.3897E-08  0.2294E-12 -0.2790E-12 -0.1779E-12  0.1934E-04 -0.2190E-10 -0.4206E-11  0.1983E-10  0.2573E-08  0.2421E-12  0.3832E-13 -0.1393E-12
     -9.884  0.1377E+00  0.1360E-09 -0.1059E-07  0.2732E-08  0.1350E-02  0.3545E-09 -0.3276E-09 -0.5426E-08  0.3456E-02 -0.5777E-09  0.7893E-09  0.1062E-08  0.1350E-02 -0.1252E-09 -0.1881E-09  0.6071E-08  0.4952E-03 -0.1320E-09  0.2030E-09 -0.6545E-10  0.1965E-03 -0.1435E-09 -0.8907E-10 -0.9536E-09  0.1151E-05  0.6880E-11 -0.4692E-12  0.5091E-11  0.1965E-03 -0.1849E-09  0.4103E-11  0.1006E-08  0.5181E-07 -0.8597E-12  0.2582E-11 -0.1889E-10
     -9.773  0.5052E-01  0.4673E-06  0.4650E-06 -0.3250E-07  0.5935E-04  0.2678E-07  0.2565E-07 -0.6995E-08  0.2658E-02  0.4226E-08  0.4085E-08 -0.1501E-08  0.5935E-04  0.2565E-07  0.2677E-07  0.6909E-08  0.3771E-03  0.1054E-08  0.1007E-08 -0.3858E-09  0.8616E-05  0.3808E-08  0.3613E-08 -0.1179E-08  0.1390E-05 -0.1563E-10 -0.1865E-10  0.7073E-11  0.8616E-05  0.3607E-08  0.3815E-08  0.1169E-08  0.3319E-07 -0.2352E-11  0.4413E-11 -0.2190E-10
     -9.662  0.2902E-01  0.9554E-03  0.9554E-03 -0.1801E-07  0.1609E-02  0.6005E-04  0.5448E-04 -0.6308E-08  0.2112E-03  0.1093E-04  0.1093E-04 -0.9095E-09  0.1609E-02  0.5448E-04  0.6005E-04 -0.6280E-08  0.7265E-04  0.1038E-05  0.1038E-05  0.1216E-08  0.2354E-03  0.8073E-05  0.7162E-05 -0.4187E-09  0.7420E-06 -0.1856E-06 -0.1856E-06 -0.5771E-10  0.2354E-03  0.7162E-05  0.8073E-05 -0.4111E-09  0.1695E-07  0.1160E-07  0.1160E-07 -0.1640E-11
     -9.551  0.1207E+00 -0.8882E-03 -0.8882E-03 -0.1640E-06  0.6692E-02 -0.2405E-04 -0.4384E-04 -0.3142E-07  0.9309E-03  0.1736E-04  0.1737E-04 -0.4259E-08  0.6692E-02 -0.4384E-04 -0.2405E-04 -0.3124E-07  0.3110E-03 -0.6886E-05 -0.6887E-05  0.4768E-08  0.9798E-03 -0.6643E-05 -0.9599E-05 -0.2376E-08  0.3199E-05 -0.8982E-06 -0.8980E-06 -0.2488E-09  0.9798E-03 -0.9600E-05 -0.6643E-05 -0.2381E-08  0.7537E-07  0.5139E-07  0.5136E-07 -0.7063E-11
     -9.440  0.1855E+00  0.2450E-02  0.2450E-02  0.3473E-07  0.4059E-02  0.6600E-04  0.4569E-04 -0.2026E-08  0.2490E-01  0.4172E-03  0.4174E-03  0.2225E-07  0.4059E-02  0.4567E-04  0.6601E-04  0.4907E-08  0.3840E-02  0.5382E-04  0.5383E-04 -0.8998E-09  0.7733E-03  0.8781E-05 -0.1463E-05 -0.7144E-09  0.1767E-04 -0.9844E-06 -0.9856E-06  0.7298E-10  0.7733E-03 -0.1465E-05  0.8774E-05  0.2232E-09  0.3770E-06  0.7950E-07  0.7940E-07 -0.5772E-10
     -9.329  0.1797E+00 -0.2774E-02 -0.2774E-02 -0.1541E-07  0.6251E-02 -0.2986E-04 -0.4163E-04 -0.6891E-09  0.2000E-01 -0.3650E-03 -0.3649E-03  0.1224E-07  0.6251E-02 -0.4163E-04 -0.2986E-04  0.3388E-08  0.3163E-02 -0.6230E-04 -0.6229E-04 -0.1248E-08  0.1142E-02 -0.8864E-05 -0.1534E-04 -0.1072E-08  0.1173E-04 -0.1110E-05 -0.1111E-05  0.1131E-09  0.1142E-02 -0.1534E-04 -0.8868E-05  0.1573E-09  0.3411E-06  0.6112E-07  0.6105E-07 -0.4568E-10
     -9.218  0.2536E-02 -0.8653E-05 -0.8644E-05  0.1099E-07  0.6144E-04 -0.1237E-06 -0.1321E-06 -0.2989E-08  0.5492E-03 -0.1231E-05 -0.1219E-05  0.1585E-07  0.6144E-04 -0.1321E-06 -0.1237E-06  0.2914E-08  0.8891E-04 -0.1926E-06 -0.1914E-06  0.1397E-08  0.1086E-04 -0.2733E-07 -0.3258E-07 -0.3551E-09  0.6191E-06 -0.1611E-08 -0.1626E-08 -0.1564E-10  0.1086E-04 -0.3260E-07 -0.2733E-07  0.3430E-09  0.8615E-08  0.6594E-10  0.6576E-10 -0.9737E-12
     -9.108  0.5986E-01  0.1647E-02  0.1652E-02 -0.1559E-05  0.1631E-02  0.2499E-03  0.2375E-03 -0.2106E-06  0.1644E-01  0.1232E-03  0.1252E-03 -0.1061E-06  0.1631E-02  0.2372E-03  0.2502E-03 -0.5034E-08  0.2727E-02  0.2988E-04  0.3017E-04 -0.6346E-07  0.2775E-03  0.4114E-04  0.3922E-04 -0.3445E-07  0.2069E-04 -0.1158E-06 -0.1151E-06 -0.8130E-09  0.2775E-03  0.3915E-04  0.4118E-04  0.1225E-08  0.2570E-06  0.1489E-07  0.1490E-07  0.8015E-10
     -8.997  0.2387E+00 -0.6833E-04  0.6230E-02 -0.2551E-02  0.2921E-01  0.1852E-03  0.3773E-03 -0.1700E-03  0.2978E-01  0.1418E-03  0.2255E-02 -0.8269E-03  0.2911E-01  0.3472E-04  0.5635E-03 -0.1534E-03  0.6379E-02 -0.3065E-04  0.3046E-03 -0.1407E-03  0.5254E-02  0.5553E-05  0.7027E-04 -0.3396E-04  0.2752E-04 -0.3790E-05 -0.3214E-05 -0.5882E-06  0.4953E-02 -0.1415E-04  0.6115E-04 -0.1750E-04  0.1203E-05  0.3282E-06  0.3645E-06  0.5640E-06
     -8.886  0.1936E+00  0.1309E-02 -0.5078E-02  0.2586E-02  0.1330E-01  0.9682E-04 -0.2422E-03  0.5464E-04  0.5802E-01  0.9440E-03 -0.8342E-03  0.7905E-03  0.1297E-01  0.6121E-04 -0.4595E-04  0.5258E-04  0.9955E-02  0.1452E-03 -0.2064E-03  0.1338E-03  0.3368E-02  0.3096E-04 -0.1103E-03  0.5370E-04  0.4496E-04 -0.5056E-06 -0.6109E-05  0.6078E-07  0.2375E-02  0.2274E-04 -0.1906E-04  0.2990E-04  0.2483E-05  0.7317E-07  0.1052E-06  0.2151E-05
     -8.775  0.1966E+00 -0.3062E-02 -0.3549E-02  0.1968E-03  0.2364E-01 -0.1685E-03 -0.3029E-03  0.9993E-05  0.5433E-01 -0.7215E-03 -0.8748E-03  0.6252E-04  0.2364E-01 -0.2776E-03 -0.1912E-03  0.9100E-05  0.1019E-01 -0.1797E-03 -0.2059E-03  0.1062E-04  0.5351E-02 -0.6757E-04 -0.1098E-03  0.3140E-05  0.2330E-04 -0.3671E-05 -0.3848E-05  0.3113E-07  0.5339E-02 -0.1020E-03 -0.7166E-04  0.1680E-05  0.1262E-05  0.3633E-06  0.3625E-06  0.2893E-07
     -8.664  0.4886E-01  0.4930E-02  0.4930E-02 -0.3062E-06  0.4548E-02  0.6636E-03  0.5834E-03  0.4678E-07  0.3110E-01  0.3443E-02  0.3444E-02 -0.7931E-06  0.4548E-02  0.5834E-03  0.6637E-03  0.5565E-07  0.5694E-02  0.6208E-03  0.6211E-03 -0.1992E-06  0.1027E-02  0.1314E-03  0.1152E-03  0.2439E-07  0.2503E-04  0.1588E-05  0.1578E-05  0.5346E-08  0.1027E-02  0.1152E-03  0.1314E-03  0.3618E-07  0.5446E-06  0.1032E-06  0.1034E-06  0.7574E-10
     -8.553  0.2285E+00 -0.3897E-03  0.4668E-03 -0.3968E-03  0.3985E-01  0.1453E-02  0.1118E-02 -0.6816E-04  0.1207E+00 -0.8866E-03 -0.3704E-03 -0.2384E-03  0.4084E-01  0.1160E-02  0.2115E-02 -0.2167E-03  0.2406E-01 -0.2072E-03 -0.1020E-03 -0.5088E-04  0.8726E-02  0.2107E-03  0.2290E-03 -0.4560E-04  0.7916E-04 -0.8851E-05 -0.8674E-05 -0.6084E-07  0.8512E-02  0.8991E-04  0.2002E-03 -0.1093E-04  0.2873E-05  0.1085E-05  0.1133E-05  0.1649E-07
     -8.442  0.1886E+00 -0.2631E-02  0.4047E-02 -0.3085E-02  0.3562E-01 -0.7235E-03 -0.1619E-04 -0.7770E-03  0.9979E-01 -0.1339E-04  0.4628E-02 -0.1929E-02  0.9617E-01  0.3125E-03  0.5161E-02 -0.2020E-02  0.2179E-01 -0.2083E-03  0.5676E-03 -0.4100E-03  0.2019E-01  0.8951E-04  0.7828E-03 -0.3419E-03  0.3771E-04 -0.9152E-05 -0.6180E-05 -0.1299E-05  0.7037E-02 -0.2800E-03  0.6746E-05 -0.5489E-04  0.1541E-04  0.5072E-05  0.8007E-06  0.3211E-05
     -8.331  0.5912E-01 -0.5055E-03 -0.8332E-02  0.3795E-02  0.1259E-01  0.1064E-02 -0.3756E-03  0.5496E-03  0.6375E-01  0.4244E-02  0.1352E-02  0.2054E-02  0.2939E-01 -0.8163E-03 -0.4667E-02  0.1923E-02  0.1306E-01  0.7901E-03  0.9443E-04  0.4404E-03  0.6362E-02 -0.1507E-03 -0.1104E-02  0.4464E-03  0.2049E-04 -0.2345E-05 -0.3300E-05 -0.2988E-07  0.2667E-02  0.1806E-03 -0.4407E-04  0.1268E-03  0.5048E-05  0.1687E-05 -0.1063E-05  0.1343E-05
     -8.220  0.7872E-01 -0.3247E-02 -0.1414E-02 -0.1399E-03  0.1843E-01 -0.9881E-03 -0.1063E-02 -0.7675E-04  0.2042E+00 -0.3390E-02  0.5076E-02 -0.4857E-03  0.4387E-01 -0.3729E-03  0.3870E-02 -0.1693E-03  0.4055E-01 -0.8324E-03  0.7135E-03 -0.9667E-04  0.1017E-01 -0.9224E-04  0.5090E-03 -0.1520E-04  0.5427E-04 -0.3481E-05 -0.3787E-05 -0.4363E-06  0.4045E-02 -0.3608E-03 -0.2485E-03  0.8242E-05  0.4519E-05  0.8800E-06  0.1997E-05  0.7245E-06
     -8.109  0.1996E-01 -0.4040E-03 -0.2937E-02  0.2417E-03  0.7775E-02  0.2792E-03 -0.3443E-03  0.1048E-04  0.1531E+00  0.4116E-03 -0.8102E-02  0.7721E-03  0.5431E-01 -0.7733E-03 -0.2914E-02  0.1450E-03  0.3139E-01 -0.6440E-04 -0.1949E-02  0.1521E-03  0.1197E-01 -0.1689E-03 -0.9890E-03  0.3977E-04  0.7407E-05 -0.2289E-05 -0.2821E-05 -0.2224E-06  0.1703E-02 -0.6571E-04 -0.6616E-04  0.2268E-05  0.5320E-05  0.2399E-05  0.1395E-05  0.1519E-06
     -7.998  0.7367E-03 -0.1493E-03 -0.4252E-03  0.5606E-07  0.6509E-03 -0.1235E-03 -0.2347E-03 -0.1228E-07  0.1298E-01 -0.2978E-02 -0.4434E-02  0.2758E-06  0.2548E-02 -0.5177E-03 -0.1417E-02  0.2771E-07  0.2611E-02 -0.6046E-03 -0.9247E-03  0.7091E-07  0.5723E-03 -0.1170E-03 -0.3284E-03  0.8516E-08  0.1617E-06 -0.1387E-06 -0.6946E-07 -0.5452E-10  0.1525E-03 -0.3882E-04 -0.5338E-04 -0.4961E-08  0.4149E-06  0.2735E-06  0.1058E-06  0.2979E-10
     -7.888  0.2548E-07 -0.1042E-07 -0.1821E-07  0.1315E-12  0.5152E-07 -0.2487E-07 -0.2923E-07 -0.1671E-11  0.1088E-05 -0.5613E-06 -0.6026E-06  0.1361E-10  0.8928E-07 -0.3725E-07 -0.6166E-07 -0.1486E-11  0.2147E-06 -0.1108E-06 -0.1198E-06  0.4745E-11  0.2113E-07 -0.8829E-08 -0.1496E-07 -0.3677E-12  0.5929E-11 -0.4735E-11 -0.3338E-11 -0.8166E-15  0.1273E-07 -0.6788E-08 -0.7028E-08 -0.4923E-12  0.2991E-10  0.2021E-10  0.1584E-10  0.1871E-14
     -7.777  0.1731E-15 -0.1054E-15 -0.1203E-15  0.1326E-20  0.5457E-15 -0.3429E-15 -0.3673E-15 -0.1864E-19  0.1174E-13 -0.7650E-14 -0.7729E-14  0.1663E-18  0.6142E-15 -0.3826E-15 -0.4131E-15 -0.1871E-19  0.2306E-14 -0.1503E-14 -0.1520E-14  0.5695E-19  0.1528E-15 -0.9294E-16 -0.1069E-15 -0.5019E-20  0.4081E-19 -0.2982E-19 -0.2727E-19 -0.7946E-23  0.1375E-15 -0.9132E-16 -0.8949E-16 -0.5466E-20  0.3131E-18  0.2166E-18  0.2084E-18  0.1758E-22
     -7.666  0.0000E+00  0.0000E+00  0.0000E+00  0.0000E+00  0.0000E+00  0.0000E+00  0.0000E+00  0.0000E+00  0.0000E+00  0.0000E+00  0.0000E+00  0.0000E+00  0.0000E+00  0.0000E+00  0.0000E+00  0.0000E+00  0.0000E+00  0.0000E+00  0.0000E+00  0.0000E+00  0.0000E+00  0.0000E+00  0.0000E+00  0.0000E+00  0.0000E+00  0.0000E+00  0.0000E+00  0.0000E+00  0.0000E+00  0.0000E+00  0.0000E+00  0.0000E+00  0.0000E+00  0.0000E+00  0.0000E+00  0.0000E+00
     -7.555  0.0000E+00  0.0000E+00  0.0000E+00  0.0000E+00  0.0000E+00  0.0000E+00  0.0000E+00  0.0000E+00  0.0000E+00  0.0000E+00  0.0000E+00  0.0000E+00  0.0000E+00  0.0000E+00  0.0000E+00  0.0000E+00  0.0000E+00  0.0000E+00  0.0000E+00  0.0000E+00  0.0000E+00  0.0000E+00  0.0000E+00  0.0000E+00  0.0000E+00  0.0000E+00  0.0000E+00  0.0000E+00  0.0000E+00  0.0000E+00  0.0000E+00  0.0000E+00  0.0000E+00  0.0000E+00  0.0000E+00  0.0000E+00
     -7.444  0.0000E+00  0.0000E+00  0.0000E+00  0.0000E+00  0.0000E+00  0.0000E+00  0.0000E+00  0.0000E+00  0.0000E+00  0.0000E+00  0.0000E+00  0.0000E+00  0.0000E+00  0.0000E+00  0.0000E+00  0.0000E+00  0.0000E+00  0.0000E+00  0.0000E+00  0.0000E+00  0.0000E+00  0.0000E+00  0.0000E+00  0.0000E+00  0.0000E+00  0.0000E+00  0.0000E+00  0.0000E+00  0.0000E+00  0.0000E+00  0.0000E+00  0.0000E+00  0.0000E+00  0.0000E+00  0.0000E+00  0.0000E+00
     -7.333  0.0000E+00  0.0000E+00  0.0000E+00  0.0000E+00  0.0000E+00  0.0000E+00  0.0000E+00  0.0000E+00  0.0000E+00  0.0000E+00  0.0000E+00  0.0000E+00  0.0000E+00  0.0000E+00  0.0000E+00  0.0000E+00  0.0000E+00  0.0000E+00  0.0000E+00  0.0000E+00  0.0000E+00  0.0000E+00  0.0000E+00  0.0000E+00  0.0000E+00  0.0000E+00  0.0000E+00  0.0000E+00  0.0000E+00  0.0000E+00  0.0000E+00  0.0000E+00  0.0000E+00  0.0000E+00  0.0000E+00  0.0000E+00
     -7.222  0.0000E+00  0.0000E+00  0.0000E+00  0.0000E+00  0.0000E+00  0.0000E+00  0.0000E+00  0.0000E+00  0.0000E+00  0.0000E+00  0.0000E+00  0.0000E+00  0.0000E+00  0.0000E+00  0.0000E+00  0.0000E+00  0.0000E+00  0.0000E+00  0.0000E+00  0.0000E+00  0.0000E+00  0.0000E+00  0.0000E+00  0.0000E+00  0.0000E+00  0.0000E+00  0.0000E+00  0.0000E+00  0.0000E+00  0.0000E+00  0.0000E+00  0.0000E+00  0.0000E+00  0.0000E+00  0.0000E+00  0.0000E+00
     -7.111  0.0000E+00  0.0000E+00  0.0000E+00  0.0000E+00  0.0000E+00  0.0000E+00  0.0000E+00  0.0000E+00  0.0000E+00  0.0000E+00  0.0000E+00  0.0000E+00  0.0000E+00  0.0000E+00  0.0000E+00  0.0000E+00  0.0000E+00  0.0000E+00  0.0000E+00  0.0000E+00  0.0000E+00  0.0000E+00  0.0000E+00  0.0000E+00  0.0000E+00  0.0000E+00  0.0000E+00  0.0000E+00  0.0000E+00  0.0000E+00  0.0000E+00  0.0000E+00  0.0000E+00  0.0000E+00  0.0000E+00  0.0000E+00