   2   2   0   0
  0.2779610E+02  0.4283936E-09  0.4283936E-09  0.4283936E-09  0.5000000E-15
  1.000000000000000E-004
  CAR 
 unknown system                          
     45.89716915    -12.82389223  301      2.99679504      1.00000000
    -12.824  0.0000E+00  0.0000E+00
    -12.628  0.0000E+00  0.0000E+00
    -12.432  0.0000E+00  0.0000E+00
    -12.237  0.0000E+00  0.0000E+00
    -12.041  0.0000E+00  0.0000E+00
    -11.845  0.0000E+00  0.0000E+00
    -11.649  0.0000E+00  0.0000E+00
    -11.454  0.0000E+00  0.0000E+00
    -11.258  0.0000E+00  0.0000E+00
    -11.062  0.0000E+00  0.0000E+00
    -10.867  0.0000E+00  0.0000E+00
    -10.671 -0.7578E-47 -0.1483E-47
    -10.475 -0.1289E-18 -0.2522E-19
    -10.279 -0.5697E-04 -0.1115E-04
    -10.084  0.4882E-01  0.9545E-02
     -9.888  0.1719E+00  0.4319E-01
     -9.692  0.4908E+00  0.1393E+00
     -9.496  0.7031E-01  0.1530E+00
     -9.301  0.4511E+00  0.2413E+00
     -9.105  0.1561E+01  0.5469E+00
     -8.909 -0.1207E-01  0.5446E+00
     -8.713  0.1625E+01  0.8626E+00
     -8.518  0.2269E+01  0.1307E+01
     -8.322  0.1535E+01  0.1607E+01
     -8.126  0.1880E+01  0.1975E+01
     -7.930  0.1268E+00  0.2000E+01
     -7.735 -0.2052E-07  0.2000E+01
     -7.539  0.0000E+00  0.2000E+01
     -7.343  0.0000E+00  0.2000E+01
     -7.148  0.0000E+00  0.2000E+01
     -6.952  0.0000E+00  0.2000E+01
     -6.756  0.0000E+00  0.2000E+01
     -6.560  0.0000E+00  0.2000E+01
     -6.365  0.0000E+00  0.2000E+01
     -6.169  0.0000E+00  0.2000E+01
     -5.973  0.0000E+00  0.2000E+01
     -5.777  0.0000E+00  0.2000E+01
     -5.582  0.0000E+00  0.2000E+01
     -5.386  0.0000E+00  0.2000E+01
     -5.190  0.0000E+00  0.2000E+01
     -4.994  0.0000E+00  0.2000E+01
     -4.799  0.0000E+00  0.2000E+01
     -4.603  0.0000E+00  0.2000E+01
     -4.407  0.0000E+00  0.2000E+01
     -4.211  0.0000E+00  0.2000E+01
     -4.016 -0.7634E-60  0.2000E+01
     -3.820 -0.8859E-27  0.2000E+01
     -3.624 -0.3523E-07  0.2000E+01
     -3.429  0.6498E-01  0.2013E+01
     -3.233  0.8013E+00  0.2170E+01
     -3.037  0.4066E+01  0.2966E+01
     -2.841 -0.8592E-01  0.2949E+01
     -2.646  0.1214E+01  0.3186E+01
     -2.450  0.1083E+01  0.3398E+01
     -2.254  0.4691E-01  0.3407E+01
     -2.058  0.6150E+00  0.3528E+01
     -1.863 -0.4345E-04  0.3528E+01
     -1.667  0.1775E+00  0.3563E+01
     -1.471  0.9578E+00  0.3750E+01
     -1.275 -0.8245E-05  0.3750E+01
     -1.080  0.1817E+00  0.3786E+01
     -0.884  0.3810E+00  0.3860E+01
     -0.688  0.5785E+00  0.3973E+01
     -0.492  0.5858E+00  0.4088E+01
     -0.297  0.5478E+00  0.4195E+01
     -0.101  0.2081E+01  0.4603E+01
      0.095  0.1321E+01  0.4861E+01
      0.290  0.1034E+01  0.5063E+01
      0.486  0.1938E+01  0.5443E+01
      0.682  0.2575E+01  0.5947E+01
      0.878  0.5108E+00  0.6047E+01
      1.073  0.2306E+01  0.6498E+01
      1.269  0.1068E+01  0.6707E+01
      1.465  0.2153E+01  0.7129E+01
      1.661  0.2889E+00  0.7185E+01
      1.856  0.1520E+01  0.7483E+01
      2.052  0.7673E+00  0.7633E+01
      2.248  0.4043E+00  0.7712E+01
      2.444  0.9663E+00  0.7901E+01
      2.639  0.2959E+00  0.7959E+01
      2.835  0.1146E+00  0.7981E+01
      3.031  0.9731E-01  0.8000E+01
      3.227 -0.2523E-02  0.8000E+01
      3.422  0.1649E-01  0.8003E+01
      3.618  0.3082E-01  0.8009E+01
      3.814 -0.4130E-07  0.8009E+01
      4.009 -0.2045E-49  0.8009E+01
      4.205 -0.5471E-20  0.8009E+01
      4.401 -0.4190E-04  0.8009E+01
      4.597  0.1937E+00  0.8047E+01
      4.792  0.4321E+00  0.8132E+01
      4.988  0.3430E+00  0.8199E+01
      5.184  0.1192E+00  0.8222E+01
      5.380  0.2796E+00  0.8277E+01
      5.575  0.1164E+01  0.8505E+01
      5.771  0.1089E+00  0.8526E+01
      5.967  0.3996E+01  0.9308E+01
      6.163  0.8837E+00  0.9481E+01
      6.358  0.2351E+00  0.9527E+01
      6.554  0.3003E+00  0.9586E+01
      6.750  0.5561E+00  0.9695E+01
      6.946  0.1317E+01  0.9953E+01
      7.141  0.4077E+01  0.1075E+02
      7.337  0.8962E+00  0.1093E+02
      7.533 -0.1476E-02  0.1093E+02
      7.728  0.6414E+00  0.1105E+02
      7.924  0.2389E+01  0.1152E+02
      8.120  0.1061E+01  0.1173E+02
      8.316  0.1851E+01  0.1209E+02
      8.511  0.1447E+01  0.1237E+02
      8.707  0.6382E+00  0.1250E+02
      8.903  0.1159E+01  0.1272E+02
      9.099  0.2854E+01  0.1328E+02
      9.294  0.5649E+00  0.1339E+02
      9.490  0.1677E+01  0.1372E+02
      9.686  0.1149E+01  0.1395E+02
      9.882 -0.2594E-02  0.1395E+02
     10.077  0.1476E+01  0.1423E+02
     10.273  0.1482E+01  0.1453E+02
     10.469  0.4898E+00  0.1462E+02
     10.665  0.8936E+00  0.1480E+02
     10.860  0.2739E+01  0.1533E+02
     11.056  0.6548E+00  0.1546E+02
     11.252  0.1849E+01  0.1582E+02
     11.447  0.1191E+01  0.1606E+02
     11.643  0.1320E+01  0.1631E+02
     11.839  0.1858E+01  0.1668E+02
     12.035  0.6492E+00  0.1680E+02
     12.230  0.1923E+01  0.1718E+02
     12.426  0.1460E+01  0.1747E+02
     12.622  0.8815E-01  0.1748E+02
     12.818  0.1764E+01  0.1783E+02
     13.013  0.1397E+01  0.1810E+02
     13.209  0.1264E+01  0.1835E+02
     13.405  0.1740E+01  0.1869E+02
     13.601  0.3180E+00  0.1875E+02
     13.796  0.1077E+01  0.1896E+02
     13.992  0.2490E+01  0.1945E+02
     14.188  0.3048E+00  0.1951E+02
     14.384  0.1791E+01  0.1986E+02
     14.579  0.2308E+01  0.2031E+02
     14.775  0.2362E+01  0.2078E+02
     14.971 -0.4919E-01  0.2077E+02
     15.166  0.2295E+01  0.2121E+02
     15.362 -0.2207E-01  0.2121E+02
     15.558  0.7517E+00  0.2136E+02
     15.754  0.3365E+01  0.2202E+02
     15.949  0.4135E+01  0.2283E+02
     16.145  0.2919E+01  0.2340E+02
     16.341  0.3089E+01  0.2400E+02
     16.537  0.1491E+01  0.2429E+02
     16.732  0.1671E+01  0.2462E+02
     16.928  0.8011E+00  0.2478E+02
     17.124  0.1413E+01  0.2505E+02
     17.320  0.2714E+00  0.2511E+02
     17.515  0.1599E+01  0.2542E+02
     17.711  0.1186E+00  0.2544E+02
     17.907  0.1334E+01  0.2570E+02
     18.103  0.2349E+00  0.2575E+02
     18.298  0.1299E+00  0.2578E+02
     18.494  0.2990E+01  0.2636E+02
     18.690  0.2590E+01  0.2687E+02
     18.885  0.3481E+01  0.2755E+02
     19.081  0.3240E+01  0.2818E+02
     19.277  0.3122E+01  0.2879E+02
     19.473  0.2218E+01  0.2923E+02
     19.668  0.2683E+01  0.2975E+02
     19.864  0.2055E+01  0.3016E+02
     20.060  0.1005E+01  0.3035E+02
     20.256  0.8091E+00  0.3051E+02
     20.451  0.1547E+01  0.3081E+02
     20.647  0.4961E+01  0.3178E+02
     20.843  0.1536E+01  0.3209E+02
     21.039  0.1642E+01  0.3241E+02
     21.234  0.1246E+01  0.3265E+02
     21.430  0.1347E+01  0.3291E+02
     21.626  0.1784E+01  0.3326E+02
     21.822  0.4018E+00  0.3334E+02
     22.017  0.1464E+01  0.3363E+02
     22.213  0.1335E+01  0.3389E+02
     22.409  0.3471E+01  0.3457E+02
     22.604  0.1273E+01  0.3482E+02
     22.800  0.2176E+01  0.3524E+02
     22.996  0.4770E+01  0.3618E+02
     23.192  0.6233E+00  0.3630E+02
     23.387  0.2965E+01  0.3688E+02
     23.583  0.3747E+01  0.3761E+02
     23.779  0.1388E+01  0.3789E+02
     23.975  0.2466E+01  0.3837E+02
     24.170  0.4873E+01  0.3932E+02
     24.366  0.2283E+01  0.3977E+02
     24.562  0.1696E+01  0.4010E+02
     24.758  0.1992E+01  0.4049E+02
     24.953  0.1673E+01  0.4082E+02
     25.149  0.1807E+01  0.4117E+02
     25.345  0.2369E+01  0.4164E+02
     25.541  0.1354E+01  0.4190E+02
     25.736  0.1783E+01  0.4225E+02
     25.932  0.9778E+00  0.4244E+02
     26.128  0.2560E+01  0.4294E+02
     26.323  0.1626E+01  0.4326E+02
     26.519  0.3431E+01  0.4393E+02
     26.715  0.3645E+01  0.4465E+02
     26.911  0.4352E+00  0.4473E+02
     27.106  0.8452E+00  0.4490E+02
     27.302  0.4570E+01  0.4579E+02
     27.498  0.4952E+01  0.4676E+02
     27.694  0.1521E+01  0.4706E+02
     27.889  0.4200E+01  0.4788E+02
     28.085  0.2223E+01  0.4831E+02
     28.281  0.1817E+01  0.4867E+02
     28.477  0.1130E+01  0.4889E+02
     28.672  0.2835E+01  0.4945E+02
     28.868  0.9285E+00  0.4963E+02
     29.064  0.2590E+01  0.5014E+02
     29.260  0.4710E+01  0.5106E+02
     29.455  0.2600E+01  0.5157E+02
     29.651  0.2839E+01  0.5212E+02
     29.847  0.1451E+01  0.5241E+02
     30.042  0.1107E+01  0.5262E+02
     30.238  0.1334E+01  0.5288E+02
     30.434  0.1935E+01  0.5326E+02
     30.630  0.2387E+01  0.5373E+02
     30.825  0.2689E+01  0.5426E+02
     31.021  0.2089E+01  0.5466E+02
     31.217  0.2855E+00  0.5472E+02
     31.413  0.1838E+01  0.5508E+02
     31.608  0.1263E+01  0.5533E+02
     31.804  0.8643E+00  0.5550E+02
     32.000  0.2986E+00  0.5556E+02
     32.196  0.5796E+00  0.5567E+02
     32.391  0.5099E+00  0.5577E+02
     32.587  0.1886E+00  0.5581E+02
     32.783  0.3788E+00  0.5588E+02
     32.979  0.1329E+00  0.5591E+02
     33.174  0.2508E+00  0.5595E+02
     33.370  0.1363E+00  0.5598E+02
     33.566 -0.8139E-06  0.5598E+02
     33.761  0.0000E+00  0.5598E+02
     33.957 -0.8774E-31  0.5598E+02
     34.153 -0.1423E-09  0.5598E+02
     34.349  0.3502E-02  0.5598E+02
     34.544  0.6661E-01  0.5600E+02
     34.740  0.2444E-01  0.5600E+02
     34.936  0.5268E-04  0.5600E+02
     35.132  0.0000E+00  0.5600E+02
     35.327  0.0000E+00  0.5600E+02
     35.523  0.0000E+00  0.5600E+02
     35.719  0.0000E+00  0.5600E+02
     35.915  0.0000E+00  0.5600E+02
     36.110  0.0000E+00  0.5600E+02
     36.306  0.0000E+00  0.5600E+02
     36.502  0.0000E+00  0.5600E+02
     36.698  0.0000E+00  0.5600E+02
     36.893  0.0000E+00  0.5600E+02
     37.089  0.0000E+00  0.5600E+02
     37.285  0.0000E+00  0.5600E+02
     37.480  0.0000E+00  0.5600E+02
     37.676  0.0000E+00  0.5600E+02
     37.872  0.0000E+00  0.5600E+02
     38.068  0.0000E+00  0.5600E+02
     38.263  0.0000E+00  0.5600E+02
     38.459  0.0000E+00  0.5600E+02
     38.655  0.0000E+00  0.5600E+02
     38.851  0.0000E+00  0.5600E+02
     39.046  0.0000E+00  0.5600E+02
     39.242  0.0000E+00  0.5600E+02
     39.438  0.0000E+00  0.5600E+02
     39.634  0.0000E+00  0.5600E+02
     39.829  0.0000E+00  0.5600E+02
     40.025  0.0000E+00  0.5600E+02
     40.221  0.0000E+00  0.5600E+02
     40.417  0.0000E+00  0.5600E+02
     40.612  0.0000E+00  0.5600E+02
     40.808  0.0000E+00  0.5600E+02
     41.004  0.0000E+00  0.5600E+02
     41.199  0.0000E+00  0.5600E+02
     41.395  0.0000E+00  0.5600E+02
     41.591  0.0000E+00  0.5600E+02
     41.787  0.0000E+00  0.5600E+02
     41.982  0.0000E+00  0.5600E+02
     42.178  0.0000E+00  0.5600E+02
     42.374  0.0000E+00  0.5600E+02
     42.570  0.0000E+00  0.5600E+02
     42.765  0.0000E+00  0.5600E+02
     42.961  0.0000E+00  0.5600E+02
     43.157  0.0000E+00  0.5600E+02
     43.353  0.0000E+00  0.5600E+02
     43.548  0.0000E+00  0.5600E+02
     43.744  0.0000E+00  0.5600E+02
     43.940  0.0000E+00  0.5600E+02
     44.136  0.0000E+00  0.5600E+02
     44.331  0.0000E+00  0.5600E+02
     44.527  0.0000E+00  0.5600E+02
     44.723  0.0000E+00  0.5600E+02
     44.918  0.0000E+00  0.5600E+02
     45.114  0.0000E+00  0.5600E+02
     45.310  0.0000E+00  0.5600E+02
     45.506  0.0000E+00  0.5600E+02
     45.701  0.0000E+00  0.5600E+02
     45.897  0.0000E+00  0.5600E+02
