    2    2    1    1
  0.2779610E+02  0.4283936E-09  0.4283936E-09  0.4283936E-09  0.5000000E-15
  1.000000000000000E-004
  CAR 
 unknown system                          
      8    122     56
 
  0.0000000E+00  0.0000000E+00  0.0000000E+00  0.4629630E-02
    1      -10.154753   1.000000
    2      -10.154753   1.000000
    3        2.565178   1.000000
    4        2.565179   1.000000
    5        2.954697   1.000021
    6        2.954697   1.000015
    7        2.954705   0.999985
    8        2.954705   0.999979
    9        3.431385  -0.000000
   10        3.431385  -0.000000
   11        7.263229   0.000000
   12        7.263229   0.000000
   13        7.706109   0.000000
   14        7.706109   0.000000
   15        7.706113   0.000000
   16        7.706113   0.000000
   17       11.331614   0.000000
   18       11.331615   0.000000
   19       13.249820   0.000000
   20       13.249820   0.000000
   21       13.249820   0.000000
   22       13.249821   0.000000
   23       14.164908   0.000000
   24       14.164908   0.000000
   25       14.198914   0.000000
   26       14.198914   0.000000
   27       14.198921   0.000000
   28       14.198921   0.000000
   29       16.637450   0.000000
   30       16.637450   0.000000
   31       25.416387   0.000000
   32       25.416387   0.000000
   33       25.416429   0.000000
   34       25.416430   0.000000
   35       25.620485   0.000000
   36       25.620485   0.000000
   37       26.724885   0.000000
   38       26.724885   0.000000
   39       26.724895   0.000000
   40       26.724895   0.000000
   41       26.801358   0.000000
   42       26.801359   0.000000
   43       26.989401   0.000000
   44       26.989401   0.000000
   45       26.990365   0.000000
   46       26.990365   0.000000
   47       26.990383   0.000000
   48       26.990383   0.000000
   49       27.357653   0.000000
   50       27.357655   0.000000
   51       27.357657   0.000000
   52       27.357658   0.000000
   53       34.371392   0.000000
   54       34.448395   0.000000
   55       34.510222   0.000000
   56       34.698571   0.000000
 
  0.1666667E+00  0.0000000E+00  0.0000000E+00  0.1851852E-01
    1       -9.885898   1.000000
    2       -9.885897   1.000000
    3        0.289555   1.000000
    4        0.289556   1.000000
    5        2.363183   1.000000
    6        2.363184   1.000000
    7        2.623361   1.000000
    8        2.631472   1.000000
    9        4.816919   0.000000
   10        4.816919   0.000000
   11        7.816797   0.000000
   12        7.816800   0.000000
   13        8.041408   0.000000
   14        8.041410   0.000000
   15        8.168706   0.000000
   16        8.170847   0.000000
   17       12.176779   0.000000
   18       12.209473   0.000000
   19       12.209481   0.000000
   20       12.244522   0.000000
   21       12.396097   0.000000
   22       12.396099   0.000000
   23       13.802338   0.000000
   24       13.802339   0.000000
   25       16.266816   0.000000
   26       16.272897   0.000000
   27       16.272906   0.000000
   28       16.334245   0.000000
   29       18.675950   0.000000
   30       18.675951   0.000000
   31       22.207433   0.000000
   32       22.207439   0.000000
   33       22.340619   0.000000
   34       22.384806   0.000000
   35       22.784057   0.000000
   36       22.784059   0.000000
   37       26.064944   0.000000
   38       26.125500   0.000000
   39       26.337987   0.000000
   40       26.337993   0.000000
   41       27.101252   0.000000
   42       27.101253   0.000000
   43       27.226573   0.000000
   44       27.226573   0.000000
   45       27.378716   0.000000
   46       27.386466   0.000000
   47       28.355831   0.000000
   48       28.355831   0.000000
   49       30.947976   0.000000
   50       30.948398   0.000000
   51       31.014344   0.000000
   52       31.062126   0.000000
   53       31.490723   0.000000
   54       31.502824   0.000000
   55       33.055911   0.000000
   56       33.199771   0.000000
 
  0.3333333E+00  0.0000000E+00  0.0000000E+00  0.1851852E-01
    1       -9.206672   1.000000
    2       -9.206672   1.000000
    3       -2.230295   1.000000
    4       -2.230294   1.000000
    5        1.842791   1.000000
    6        1.842792   1.000000
    7        2.112866   1.000000
    8        2.119367   1.000000
    9        4.706835   0.000000
   10        4.706836   0.000000
   11        8.286934   0.000000
   12        8.286934   0.000000
   13        8.489168   0.000000
   14        8.492047   0.000000
   15        9.919428   0.000000
   16        9.919428   0.000000
   17       11.900393   0.000000
   18       11.900393   0.000000
   19       12.721707   0.000000
   20       12.721715   0.000000
   21       12.760095   0.000000
   22       12.823077   0.000000
   23       16.794657   0.000000
   24       16.794659   0.000000
   25       18.450817   0.000000
   26       18.450825   0.000000
   27       18.544894   0.000000
   28       18.613331   0.000000
   29       19.272425   0.000000
   30       19.272426   0.000000
   31       19.484646   0.000000
   32       19.484651   0.000000
   33       19.494937   0.000000
   34       19.542265   0.000000
   35       22.394923   0.000000
   36       22.394924   0.000000
   37       26.146086   0.000000
   38       26.308093   0.000000
   39       26.378954   0.000000
   40       26.378971   0.000000
   41       26.607755   0.000000
   42       26.607759   0.000000
   43       27.406936   0.000000
   44       27.406941   0.000000
   45       27.457160   0.000000
   46       27.527676   0.000000
   47       27.813711   0.000000
   48       27.813714   0.000000
   49       28.500980   0.000000
   50       28.501003   0.000000
   51       28.626200   0.000000
   52       28.644783   0.000000
   53       29.891533   0.000000
   54       29.891848   0.000000
   55       32.160211   0.000000
   56       32.287348   0.000000
 
  0.5000000E+00  0.0000000E+00  0.0000000E+00  0.1851852E-01
    1       -8.737967   1.000000
    2       -8.737966   1.000000
    3       -3.359110   1.000000
    4       -3.359110   1.000000
    5        1.628564   1.000000
    6        1.628564   1.000000
    7        1.904655   1.000000
    8        1.904655   1.000000
    9        4.542983   0.000000
   10        4.542984   0.000000
   11        8.248121   0.000000
   12        8.248121   0.000000
   13        8.406917   0.000000
   14        8.406917   0.000000
   15       10.565341   0.000000
   16       10.565341   0.000000
   17       12.941266   0.000000
   18       12.941266   0.000000
   19       14.558525   0.000000
   20       14.558525   0.000000
   21       14.713807   0.000000
   22       14.713807   0.000000
   23       15.705370   0.000000
   24       15.705370   0.000000
   25       15.791912   0.000000
   26       15.791912   0.000000
   27       15.839470   0.000000
   28       15.839470   0.000000
   29       21.565663   0.000000
   30       21.565663   0.000000
   31       22.740628   0.000000
   32       22.740628   0.000000
   33       22.935211   0.000000
   34       22.935211   0.000000
   35       22.946390   0.000000
   36       22.946391   0.000000
   37       23.526193   0.000000
   38       23.526193   0.000000
   39       23.544700   0.000000
   40       23.544701   0.000000
   41       26.026697   0.000000
   42       26.026782   0.000000
   43       27.064356   0.000000
   44       27.064356   0.000000
   45       27.317103   0.000000
   46       27.317110   0.000000
   47       27.521329   0.000000
   48       27.521338   0.000000
   49       27.962369   0.000000
   50       27.962374   0.000000
   51       28.206673   0.000000
   52       28.206968   0.000000
   53       28.216516   0.000000
   54       28.216915   0.000000
   55       31.360392   0.000000
   56       31.507682   0.000000
 
 -0.3333333E+00  0.0000000E+00  0.0000000E+00  0.1851852E-01
    1       -9.206666   1.000000
    2       -9.206666   1.000000
    3       -2.230289   1.000000
    4       -2.230288   1.000000
    5        1.842797   1.000000
    6        1.842798   1.000000
    7        2.112872   1.000000
    8        2.119373   1.000000
    9        4.706835   0.000000
   10        4.706836   0.000000
   11        8.286934   0.000000
   12        8.286934   0.000000
   13        8.489168   0.000000
   14        8.492047   0.000000
   15        9.919428   0.000000
   16        9.919428   0.000000
   17       11.900393   0.000000
   18       11.900393   0.000000
   19       12.721707   0.000000
   20       12.721715   0.000000
   21       12.760095   0.000000
   22       12.823077   0.000000
   23       16.794657   0.000000
   24       16.794659   0.000000
   25       18.450818   0.000000
   26       18.450824   0.000000
   27       18.544894   0.000000
   28       18.613331   0.000000
   29       19.272425   0.000000
   30       19.272426   0.000000
   31       19.484646   0.000000
   32       19.484650   0.000000
   33       19.494938   0.000000
   34       19.542265   0.000000
   35       22.394923   0.000000
   36       22.394924   0.000000
   37       26.146086   0.000000
   38       26.308093   0.000000
   39       26.378957   0.000000
   40       26.378969   0.000000
   41       26.607755   0.000000
   42       26.607759   0.000000
   43       27.406936   0.000000
   44       27.406940   0.000000
   45       27.457160   0.000000
   46       27.527675   0.000000
   47       27.813711   0.000000
   48       27.813714   0.000000
   49       28.500980   0.000000
   50       28.500983   0.000000
   51       28.626211   0.000000
   52       28.644787   0.000000
   53       29.891550   0.000000
   54       29.892154   0.000000
   55       32.134521   0.000000
   56       32.247300   0.000000
 
 -0.1666667E+00  0.0000000E+00  0.0000000E+00  0.1851852E-01
    1       -9.885895   1.000000
    2       -9.885894   1.000000
    3        0.289558   1.000000
    4        0.289558   1.000000
    5        2.363186   1.000000
    6        2.363186   1.000000
    7        2.623363   1.000000
    8        2.631475   1.000000
    9        4.816919   0.000000
   10        4.816920   0.000000
   11        7.816797   0.000000
   12        7.816800   0.000000
   13        8.041407   0.000000
   14        8.041410   0.000000
   15        8.168706   0.000000
   16        8.170847   0.000000
   17       12.176779   0.000000
   18       12.209473   0.000000
   19       12.209482   0.000000
   20       12.244522   0.000000
   21       12.396098   0.000000
   22       12.396098   0.000000
   23       13.802338   0.000000
   24       13.802339   0.000000
   25       16.266816   0.000000
   26       16.272898   0.000000
   27       16.272905   0.000000
   28       16.334245   0.000000
   29       18.675950   0.000000
   30       18.675951   0.000000
   31       22.207436   0.000000
   32       22.207437   0.000000
   33       22.340619   0.000000
   34       22.384806   0.000000
   35       22.784057   0.000000
   36       22.784058   0.000000
   37       26.064944   0.000000
   38       26.125500   0.000000
   39       26.337987   0.000000
   40       26.337994   0.000000
   41       27.101253   0.000000
   42       27.101253   0.000000
   43       27.226573   0.000000
   44       27.226573   0.000000
   45       27.378717   0.000000
   46       27.386465   0.000000
   47       28.355830   0.000000
   48       28.355832   0.000000
   49       30.948198   0.000000
   50       30.949707   0.000000
   51       31.014420   0.000000
   52       31.062535   0.000000
   53       31.491014   0.000000
   54       31.496987   0.000000
   55       33.084308   0.000000
   56       33.179094   0.000000
 
  0.1666667E+00  0.1666667E+00  0.0000000E+00  0.2777778E-01
    1       -9.794690   1.000000
    2       -9.794690   1.000000
    3        0.265795   1.000000
    4        0.265796   1.000000
    5        1.872924   1.000000
    6        1.872924   1.000000
    7        2.020158   1.000000
    8        2.020158   1.000000
    9        5.827894   0.000000
   10        5.827896   0.000000
   11        6.459026   0.000000
   12        6.459028   0.000000
   13        8.780048   0.000000
   14        8.780048   0.000000
   15        8.968842   0.000000
   16        8.968842   0.000000
   17       10.683228   0.000000
   18       10.683240   0.000000
   19       13.348564   0.000000
   20       13.348564   0.000000
   21       13.576755   0.000000
   22       13.576755   0.000000
   23       15.030568   0.000000
   24       15.030568   0.000000
   25       15.066647   0.000000
   26       15.066647   0.000000
   27       15.658880   0.000000
   28       15.658884   0.000000
   29       19.877146   0.000000
   30       19.877154   0.000000
   31       21.943344   0.000000
   32       21.943345   0.000000
   33       22.136637   0.000000
   34       22.136638   0.000000
   35       22.767524   0.000000
   36       22.767525   0.000000
   37       23.609314   0.000000
   38       23.609325   0.000000
   39       26.043481   0.000000
   40       26.043482   0.000000
   41       27.021182   0.000000
   42       27.021186   0.000000
   43       27.216039   0.000000
   44       27.216040   0.000000
   45       28.165225   0.000000
   46       28.165249   0.000000
   47       30.566798   0.000000
   48       30.573761   0.000000
   49       30.668970   0.000000
   50       30.686013   0.000000
   51       31.243646   0.000000
   52       31.278960   0.000000
   53       31.425691   0.000000
   54       31.490086   0.000000
   55       32.105812   0.000000
   56       32.675041   0.000000
 
  0.3333333E+00  0.1666667E+00  0.0000000E+00  0.5555556E-01
    1       -9.240799   1.000000
    2       -9.236583   1.000000
    3       -1.648846   1.000000
    4       -1.638742   1.000000
    5        1.160471   1.000000
    6        1.179263   1.000000
    7        1.438200   1.000000
    8        1.441532   1.000000
    9        5.976716   0.000000
   10        5.991230   0.000000
   11        7.125167   0.000000
   12        7.126076   0.000000
   13        9.016377   0.000000
   14        9.049915   0.000000
   15        9.582696   0.000000
   16        9.591829   0.000000
   17       11.690756   0.000000
   18       11.705615   0.000000
   19       13.785739   0.000000
   20       13.825757   0.000000
   21       13.844584   0.000000
   22       13.877713   0.000000
   23       16.166895   0.000000
   24       16.192054   0.000000
   25       17.389126   0.000000
   26       17.423943   0.000000
   27       18.447884   0.000000
   28       18.450676   0.000000
   29       18.652675   0.000000
   30       18.702572   0.000000
   31       18.848781   0.000000
   32       18.857739   0.000000
   33       22.357525   0.000000
   34       22.465213   0.000000
   35       22.899383   0.000000
   36       22.939259   0.000000
   37       23.184094   0.000000
   38       23.184288   0.000000
   39       23.985478   0.000000
   40       24.021395   0.000000
   41       26.507093   0.000000
   42       26.556054   0.000000
   43       27.217719   0.000000
   44       27.234186   0.000000
   45       27.688421   0.000000
   46       27.709625   0.000000
   47       29.070121   0.000000
   48       29.150707   0.000000
   49       29.517702   0.000000
   50       29.525462   0.000000
   51       30.424065   0.000000
   52       30.432615   0.000000
   53       30.855613   0.000000
   54       31.000686   0.000000
   55       31.277657   0.000000
   56       31.487585   0.000000
 
  0.5000000E+00  0.1666667E+00  0.0000000E+00  0.5555556E-01
    1       -8.631116   1.000000
    2       -8.618820   1.000000
    3       -3.136131   1.000000
    4       -3.106776   1.000000
    5        0.462170   1.000000
    6        0.473072   1.000000
    7        1.329882   1.000000
    8        1.332574   1.000000
    9        5.809922   0.000000
   10        5.810841   0.000000
   11        7.859880   0.000000
   12        7.897024   0.000000
   13        9.306402   0.000000
   14        9.307711   0.000000
   15       10.163907   0.000000
   16       10.228733   0.000000
   17       12.648913   0.000000
   18       12.752333   0.000000
   19       14.237095   0.000000
   20       14.293805   0.000000
   21       14.689061   0.000000
   22       14.722275   0.000000
   23       15.636070   0.000000
   24       15.703651   0.000000
   25       16.157456   0.000000
   26       16.186070   0.000000
   27       19.202995   0.000000
   28       19.324682   0.000000
   29       20.487356   0.000000
   30       20.533857   0.000000
   31       20.812618   0.000000
   32       20.851927   0.000000
   33       21.944271   0.000000
   34       21.960518   0.000000
   35       22.744384   0.000000
   36       22.788599   0.000000
   37       23.445549   0.000000
   38       23.502463   0.000000
   39       24.361014   0.000000
   40       24.366586   0.000000
   41       25.062880   0.000000
   42       25.194008   0.000000
   43       26.252729   0.000000
   44       26.293511   0.000000
   45       26.627557   0.000000
   46       26.634061   0.000000
   47       27.297452   0.000000
   48       27.367435   0.000000
   49       27.836387   0.000000
   50       27.946420   0.000000
   51       29.112603   0.000000
   52       29.159875   0.000000
   53       29.321389   0.000000
   54       29.387284   0.000000
   55       30.133148   0.000000
   56       30.580758   0.000000
 
 -0.3333333E+00  0.1666667E+00  0.0000000E+00  0.5555556E-01
    1       -8.798145   1.000000
    2       -8.786973   1.000000
    3       -2.776709   1.000000
    4       -2.745429   1.000000
    5        0.288078   1.000000
    6        0.291336   1.000000
    7        1.727050   1.000000
    8        1.734304   1.000000
    9        5.910478   0.000000
   10        5.928257   0.000000
   11        8.124371   0.000000
   12        8.133349   0.000000
   13        8.929697   0.000000
   14        8.930879   0.000000
   15       10.007436   0.000000
   16       10.044306   0.000000
   17       12.239366   0.000000
   18       12.266000   0.000000
   19       13.164767   0.000000
   20       13.269793   0.000000
   21       14.461819   0.000000
   22       14.541345   0.000000
   23       15.823917   0.000000
   24       15.909309   0.000000
   25       17.804974   0.000000
   26       17.837602   0.000000
   27       18.950437   0.000000
   28       19.010523   0.000000
   29       19.144884   0.000000
   30       19.165690   0.000000
   31       20.488366   0.000000
   32       20.520989   0.000000
   33       22.230040   0.000000
   34       22.282678   0.000000
   35       23.352664   0.000000
   36       23.366561   0.000000
   37       23.771067   0.000000
   38       23.943637   0.000000
   39       24.671244   0.000000
   40       24.769583   0.000000
   41       25.106290   0.000000
   42       25.138719   0.000000
   43       25.210283   0.000000
   44       25.248005   0.000000
   45       27.279573   0.000000
   46       27.337620   0.000000
   47       27.418566   0.000000
   48       27.462181   0.000000
   49       27.988734   0.000000
   50       27.989109   0.000000
   51       29.076619   0.000000
   52       29.092643   0.000000
   53       29.478918   0.000000
   54       29.519899   0.000000
   55       31.374245   0.000000
   56       31.775723   0.000000
 
 -0.1666667E+00  0.1666667E+00  0.0000000E+00  0.5555556E-01
    1       -9.472951   1.000000
    2       -9.469161   1.000000
    3       -1.074896   1.000000
    4       -1.062012   1.000000
    5        0.999212   1.000000
    6        1.009139   1.000000
    7        2.343653   1.000000
    8        2.354634   1.000000
    9        5.836500   0.000000
   10        5.864044   0.000000
   11        7.804038   0.000000
   12        7.947526   0.000000
   13        8.311086   0.000000
   14        8.340325   0.000000
   15        8.837938   0.000000
   16        8.919589   0.000000
   17       11.290200   0.000000
   18       11.322806   0.000000
   19       12.900241   0.000000
   20       12.902086   0.000000
   21       13.967429   0.000000
   22       14.008225   0.000000
   23       14.997664   0.000000
   24       15.029329   0.000000
   25       16.524870   0.000000
   26       16.599061   0.000000
   27       18.363740   0.000000
   28       18.451931   0.000000
   29       18.979328   0.000000
   30       19.021790   0.000000
   31       21.010972   0.000000
   32       21.020147   0.000000
   33       22.287885   0.000000
   34       22.354289   0.000000
   35       22.541320   0.000000
   36       22.549103   0.000000
   37       22.841028   0.000000
   38       22.894830   0.000000
   39       24.137525   0.000000
   40       24.247191   0.000000
   41       27.130405   0.000000
   42       27.235965   0.000000
   43       27.446522   0.000000
   44       27.488704   0.000000
   45       28.330705   0.000000
   46       28.419444   0.000000
   47       29.304771   0.000000
   48       29.329755   0.000000
   49       30.336571   0.000000
   50       30.406990   0.000000
   51       30.666567   0.000000
   52       30.698072   0.000000
   53       31.576505   0.000000
   54       31.680547   0.000000
   55       32.167215   0.000000
   56       32.273437   0.000000
 
  0.3333333E+00  0.3333333E+00  0.0000000E+00  0.2777778E-01
    1       -8.861100   1.000000
    2       -8.861100   1.000000
    3       -2.204410   1.000000
    4       -2.204409   1.000000
    5        0.748794   1.000000
    6        0.748795   1.000000
    7        0.808360   1.000000
    8        0.808361   1.000000
    9        5.340388   0.000000
   10        5.340390   0.000000
   11        6.184636   0.000000
   12        6.184638   0.000000
   13       11.144168   0.000000
   14       11.144175   0.000000
   15       11.299931   0.000000
   16       11.299935   0.000000
   17       11.421531   0.000000
   18       11.421534   0.000000
   19       14.513595   0.000000
   20       14.513595   0.000000
   21       16.327150   0.000000
   22       16.327151   0.000000
   23       17.446379   0.000000
   24       17.446380   0.000000
   25       17.515627   0.000000
   26       17.515628   0.000000
   27       17.936921   0.000000
   28       17.936926   0.000000
   29       18.298321   0.000000
   30       18.298321   0.000000
   31       18.473198   0.000000
   32       18.473198   0.000000
   33       19.532603   0.000000
   34       19.532603   0.000000
   35       20.346894   0.000000
   36       20.346902   0.000000
   37       25.244622   0.000000
   38       25.244657   0.000000
   39       25.592199   0.000000
   40       25.592199   0.000000
   41       25.791729   0.000000
   42       25.791732   0.000000
   43       25.920589   0.000000
   44       25.920589   0.000000
   45       27.333359   0.000000
   46       27.333370   0.000000
   47       27.421703   0.000000
   48       27.421706   0.000000
   49       28.475808   0.000000
   50       28.475810   0.000000
   51       28.635590   0.000000
   52       28.635596   0.000000
   53       29.310432   0.000000
   54       29.310444   0.000000
   55       32.501722   0.000000
   56       32.656856   0.000000
 
  0.5000000E+00  0.3333333E+00  0.0000000E+00  0.5555556E-01
    1       -8.354471   1.000000
    2       -8.340281   1.000000
    3       -3.116650   1.000000
    4       -3.082651   1.000000
    5       -0.154593   1.000000
    6       -0.145873   1.000000
    7        0.623836   1.000000
    8        0.623984   1.000000
    9        5.515342   0.000000
   10        5.534952   0.000000
   11        6.857800   0.000000
   12        6.880704   0.000000
   13       10.693673   0.000000
   14       10.755195   0.000000
   15       11.530384   0.000000
   16       11.548002   0.000000
   17       13.148373   0.000000
   18       13.268797   0.000000
   19       15.038656   0.000000
   20       15.069899   0.000000
   21       15.775761   0.000000
   22       15.884876   0.000000
   23       16.478998   0.000000
   24       16.485399   0.000000
   25       17.033822   0.000000
   26       17.065421   0.000000
   27       18.893955   0.000000
   28       18.927619   0.000000
   29       19.416089   0.000000
   30       19.480402   0.000000
   31       20.311195   0.000000
   32       20.325824   0.000000
   33       20.548830   0.000000
   34       20.584930   0.000000
   35       21.561163   0.000000
   36       21.587565   0.000000
   37       22.147213   0.000000
   38       22.224593   0.000000
   39       24.001986   0.000000
   40       24.031537   0.000000
   41       24.219481   0.000000
   42       24.331912   0.000000
   43       24.768169   0.000000
   44       24.842577   0.000000
   45       26.541186   0.000000
   46       26.611307   0.000000
   47       27.163044   0.000000
   48       27.176569   0.000000
   49       28.590542   0.000000
   50       28.621380   0.000000
   51       28.853234   0.000000
   52       28.897786   0.000000
   53       30.450720   0.000000
   54       30.507162   0.000000
   55       30.651387   0.000000
   56       31.840019   0.000000
 
 -0.3333333E+00  0.3333333E+00  0.0000000E+00  0.5555556E-01
    1       -8.322014   1.000000
    2       -8.299691   1.000000
    3       -3.157588   1.000000
    4       -3.094236   1.000000
    5       -0.790165   1.000000
    6       -0.779343   1.000000
    7        1.023298   1.000000
    8        1.027374   1.000000
    9        5.892631   0.000000
   10        5.904163   0.000000
   11        8.780136   0.000000
   12        8.909906   0.000000
   13       10.449568   0.000000
   14       10.500510   0.000000
   15       10.556558   0.000000
   16       10.706193   0.000000
   17       11.097586   0.000000
   18       11.206344   0.000000
   19       12.843654   0.000000
   20       12.878858   0.000000
   21       16.679615   0.000000
   22       16.689137   0.000000
   23       17.110165   0.000000
   24       17.147437   0.000000
   25       18.401459   0.000000
   26       18.473066   0.000000
   27       19.113007   0.000000
   28       19.139579   0.000000
   29       19.501733   0.000000
   30       19.526142   0.000000
   31       20.032110   0.000000
   32       20.142866   0.000000
   33       21.464292   0.000000
   34       21.691542   0.000000
   35       22.865377   0.000000
   36       22.908365   0.000000
   37       23.265697   0.000000
   38       23.298174   0.000000
   39       23.910991   0.000000
   40       23.936446   0.000000
   41       24.041151   0.000000
   42       24.077073   0.000000
   43       24.922626   0.000000
   44       25.005084   0.000000
   45       26.093570   0.000000
   46       26.113421   0.000000
   47       26.700488   0.000000
   48       26.754508   0.000000
   49       27.512236   0.000000
   50       27.554060   0.000000
   51       28.577110   0.000000
   52       28.597544   0.000000
   53       28.881342   0.000000
   54       28.908435   0.000000
   55       29.382066   0.000000
   56       29.396167   0.000000
 
 -0.1666667E+00  0.3333333E+00  0.0000000E+00  0.5555556E-01
    1       -8.798148   1.000000
    2       -8.786976   1.000000
    3       -2.776712   1.000000
    4       -2.745432   1.000000
    5        0.288075   1.000000
    6        0.291333   1.000000
    7        1.727047   1.000000
    8        1.734301   1.000000
    9        5.910478   0.000000
   10        5.928257   0.000000
   11        8.124371   0.000000
   12        8.133349   0.000000
   13        8.929697   0.000000
   14        8.930879   0.000000
   15       10.007436   0.000000
   16       10.044306   0.000000
   17       12.239366   0.000000
   18       12.266000   0.000000
   19       13.164767   0.000000
   20       13.269793   0.000000
   21       14.461819   0.000000
   22       14.541345   0.000000
   23       15.823917   0.000000
   24       15.909309   0.000000
   25       17.804974   0.000000
   26       17.837602   0.000000
   27       18.950437   0.000000
   28       19.010523   0.000000
   29       19.144884   0.000000
   30       19.165690   0.000000
   31       20.488366   0.000000
   32       20.520989   0.000000
   33       22.230039   0.000000
   34       22.282678   0.000000
   35       23.352663   0.000000
   36       23.366561   0.000000
   37       23.771066   0.000000
   38       23.943637   0.000000
   39       24.671244   0.000000
   40       24.769583   0.000000
   41       25.106290   0.000000
   42       25.138719   0.000000
   43       25.210283   0.000000
   44       25.248005   0.000000
   45       27.279570   0.000000
   46       27.337622   0.000000
   47       27.418571   0.000000
   48       27.462183   0.000000
   49       27.988725   0.000000
   50       27.989150   0.000000
   51       29.076310   0.000000
   52       29.092584   0.000000
   53       29.478993   0.000000
   54       29.519690   0.000000
   55       31.326076   0.000000
   56       31.696527   0.000000
 
  0.5000000E+00  0.5000000E+00  0.0000000E+00  0.1388889E-01
    1       -8.171580   1.000000
    2       -8.171580   1.000000
    3       -3.429070   1.000000
    4       -3.429070   1.000000
    5        0.319085   1.000000
    6        0.319085   1.000000
    7        0.338631   1.000000
    8        0.338632   1.000000
    9        5.010547   0.000000
   10        5.010547   0.000000
   11        5.607052   0.000000
   12        5.607053   0.000000
   13       13.071693   0.000000
   14       13.071693   0.000000
   15       13.246156   0.000000
   16       13.246156   0.000000
   17       13.407861   0.000000
   18       13.407861   0.000000
   19       15.440798   0.000000
   20       15.440798   0.000000
   21       15.860212   0.000000
   22       15.860213   0.000000
   23       15.897438   0.000000
   24       15.897438   0.000000
   25       16.223229   0.000000
   26       16.223229   0.000000
   27       17.833972   0.000000
   28       17.833972   0.000000
   29       20.602720   0.000000
   30       20.602720   0.000000
   31       21.110877   0.000000
   32       21.110877   0.000000