    2    2    1    1
  0.2779610E+02  0.4283936E-09  0.4283936E-09  0.4283936E-09  0.5000000E-15
  1.000000000000000E-004
  CAR 
 unknown system                          
      8    280     21
 
  0.0000000E+00  0.0000000E+00  0.0000000E+00  0.2915452E-02
    1      -10.160751   1.000000
    2      -10.160751   1.000000
    3        2.561031   1.000000
    4        2.561031   1.000000
    5        2.951674   1.000026
    6        2.951675   1.000010
    7        2.951679   0.999989
    8        2.951680   0.999975
    9        3.424316  -0.000000
   10        3.424317  -0.000000
   11        7.261851   0.000000
   12        7.261851   0.000000
   13        7.704845   0.000000
   14        7.704845   0.000000
   15        7.704848   0.000000
   16        7.704848   0.000000
   17       11.329651   0.000000
   18       11.329651   0.000000
   19       13.248378   0.000000
   20       13.248506   0.000000
   21       13.254208   0.000000
 
  0.1428571E+00  0.0000000E+00  0.0000000E+00  0.1166181E-01
    1       -9.961670   1.000000
    2       -9.961670   1.000000
    3        0.689433   1.000000
    4        0.689433   1.000000
    5        2.436630   1.000000
    6        2.436631   1.000000
    7        2.695352   1.000000
    8        2.702923   1.000000
    9        4.722439   0.000000
   10        4.722439   0.000000
   11        7.664478   0.000000
   12        7.664480   0.000000
   13        7.915357   0.000000
   14        7.915358   0.000000
   15        8.070755   0.000000
   16        8.072025   0.000000
   17       12.286675   0.000000
   18       12.304139   0.000000
   19       12.310930   0.000000
   20       12.330425   0.000000
   21       12.343230   0.000000
 
  0.2857143E+00  0.0000000E+00  0.0000000E+00  0.1166181E-01
    1       -9.427172   1.000000
    2       -9.427171   1.000000
    3       -1.600497   1.000000
    4       -1.600497   1.000000
    5        1.968919   1.000000
    6        1.968919   1.000000
    7        2.237147   1.000000
    8        2.244845   1.000000
    9        4.786781   0.000000
   10        4.786781   0.000000
   11        8.247895   0.000000
   12        8.247896   0.000000
   13        8.477245   0.000000
   14        8.481226   0.000000
   15        9.339308   0.000000
   16        9.339308   0.000000
   17       11.962773   0.000000
   18       11.974074   0.000000
   19       12.343346   0.000000
   20       12.350060   0.000000
   21       12.398829   0.000000
 
  0.4285714E+00  0.0000000E+00  0.0000000E+00  0.1166181E-01
    1       -8.849064   1.000000
    2       -8.849063   1.000000
    3       -3.135030   1.000000
    4       -3.135030   1.000000
    5        1.665438   1.000000
    6        1.665438   1.000000
    7        1.939999   1.000000
    8        1.943039   1.000000
    9        4.571520   0.000000
   10        4.571521   0.000000
   11        8.262751   0.000000
   12        8.262751   0.000000
   13        8.429380   0.000000
   14        8.430131   0.000000
   15       10.509321   0.000000
   16       10.509321   0.000000
   17       12.480596   0.000000
   18       12.480599   0.000000
   19       13.857503   0.000000
   20       13.859914   0.000000
   21       13.951201   0.000000
 
 -0.4285714E+00  0.0000000E+00  0.0000000E+00  0.1166181E-01
    1       -8.849056   1.000000
    2       -8.849055   1.000000
    3       -3.135022   1.000000
    4       -3.135022   1.000000
    5        1.665445   1.000000
    6        1.665446   1.000000
    7        1.940007   1.000000
    8        1.943047   1.000000
    9        4.571520   0.000000
   10        4.571520   0.000000
   11        8.262751   0.000000
   12        8.262751   0.000000
   13        8.429380   0.000000
   14        8.430131   0.000000
   15       10.509321   0.000000
   16       10.509321   0.000000
   17       12.480595   0.000000
   18       12.758848   0.000000
   19       13.856280   0.000000
   20       13.881352   0.000000
   21       13.985776   0.000000
 
 -0.2857143E+00  0.0000000E+00  0.0000000E+00  0.1166181E-01
    1       -9.427167   1.000000
    2       -9.427166   1.000000
    3       -1.600492   1.000000
    4       -1.600491   1.000000
    5        1.968924   1.000000
    6        1.968925   1.000000
    7        2.237153   1.000000
    8        2.244850   1.000000
    9        4.786781   0.000000
   10        4.786781   0.000000
   11        8.247895   0.000000
   12        8.247896   0.000000
   13        8.477245   0.000000
   14        8.481226   0.000000
   15        9.339309   0.000000
   16        9.339309   0.000000
   17       11.962773   0.000000
   18       12.050968   0.000000
   19       12.343346   0.000000
   20       12.353287   0.000000
   21       12.413566   0.000000
 
 -0.1428571E+00  0.0000000E+00  0.0000000E+00  0.1166181E-01
    1       -9.961667   1.000000
    2       -9.961667   1.000000
    3        0.689435   1.000000
    4        0.689436   1.000000
    5        2.436633   1.000000
    6        2.436634   1.000000
    7        2.695355   1.000000
    8        2.702926   1.000000
    9        4.722439   0.000000
   10        4.722439   0.000000
   11        7.664477   0.000000
   12        7.664480   0.000000
   13        7.915356   0.000000
   14        7.915358   0.000000
   15        8.070755   0.000000
   16        8.072025   0.000000
   17       12.301070   0.000000
   18       12.314618   0.000000
   19       12.322459   0.000000
   20       12.338796   0.000000
   21       12.551426   0.000000
 
  0.1428571E+00  0.1428571E+00  0.0000000E+00  0.1749271E-01
    1       -9.894477   1.000000
    2       -9.894477   1.000000
    3        0.649220   1.000000
    4        0.649222   1.000000
    5        2.048308   1.000000
    6        2.048308   1.000000
    7        2.213142   1.000000
    8        2.213142   1.000000
    9        5.508356   0.000000
   10        5.508357   0.000000
   11        6.661019   0.000000
   12        6.661020   0.000000
   13        8.473856   0.000000
   14        8.473857   0.000000
   15        8.673587   0.000000
   16        8.673588   0.000000
   17       10.982179   0.000000
   18       10.982192   0.000000
   19       12.908134   0.000000
   20       12.910523   0.000000
   21       14.243999   0.000000
 
  0.2857143E+00  0.1428571E+00  0.0000000E+00  0.3498542E-01
    1       -9.467290   1.000000
    2       -9.464744   1.000000
    3       -1.075381   1.000000
    4       -1.070391   1.000000
    5        1.490649   1.000000
    6        1.505656   1.000000
    7        1.687431   1.000000
    8        1.695901   1.000000
    9        5.913439   0.000000
   10        5.921436   0.000000
   11        6.959885   0.000000
   12        6.986788   0.000000
   13        8.994726   0.000000
   14        9.009461   0.000000
   15        9.285059   0.000000
   16        9.292110   0.000000
   17       11.195710   0.000000
   18       11.206490   0.000000
   19       13.411864   0.000000
   20       13.540180   0.000000
   21       13.600845   0.000000
 
  0.4285714E+00  0.1428571E+00  0.0000000E+00  0.3498542E-01
    1       -8.872328   1.000000
    2       -8.864248   1.000000
    3       -2.731485   1.000000
    4       -2.711605   1.000000
    5        0.900039   1.000000
    6        0.915340   1.000000
    7        1.415735   1.000000
    8        1.416379   1.000000
    9        5.701508   0.000000
   10        5.708644   0.000000
   11        7.771531   0.000000
   12        7.802996   0.000000
   13        9.213957   0.000000
   14        9.217257   0.000000
   15        9.646691   0.000000
   16        9.706229   0.000000
   17       12.460148   0.000000
   18       12.513509   0.000000
   19       13.755325   0.000000
   20       13.811192   0.000000
   21       14.671085   0.000000
 
 -0.4285714E+00  0.1428571E+00  0.0000000E+00  0.3498542E-01
    1       -8.635947   1.000000
    2       -8.624110   1.000000
    3       -3.253458   1.000000
    4       -3.225278   1.000000
    5        0.550578   1.000000
    6        0.558498   1.000000
    7        1.542607   1.000000
    8        1.547442   1.000000
    9        5.646617   0.000000
   10        5.650667   0.000000
   11        7.926957   0.000000
   12        7.950001   0.000000
   13        8.919454   0.000000
   14        8.920361   0.000000
   15       10.854071   0.000000
   16       10.880281   0.000000
   17       12.745641   0.000000
   18       12.880326   0.000000
   19       13.605150   0.000000
   20       13.704245   0.000000
   21       13.795961   0.000000
 
 -0.2857143E+00  0.1428571E+00  0.0000000E+00  0.3498542E-01
    1       -9.071711   1.000000
    2       -9.064442   1.000000
    3       -2.251871   1.000000
    4       -2.229553   1.000000
    5        0.646828   1.000000
    6        0.652262   1.000000
    7        1.981284   1.000000
    8        1.990073   1.000000
    9        5.774157   0.000000
   10        5.790901   0.000000
   11        8.211252   0.000000
   12        8.228785   0.000000
   13        8.653501   0.000000
   14        8.656889   0.000000
   15        9.435926   0.000000
   16        9.444708   0.000000
   17       11.769821   0.000000
   18       11.800006   0.000000
   19       13.057300   0.000000
   20       13.119281   0.000000
   21       14.604846   0.000000
 
 -0.1428571E+00  0.1428571E+00  0.0000000E+00  0.3498542E-01
    1       -9.648298   1.000000
    2       -9.645946   1.000000
    3       -0.557634   1.000000
    4       -0.551169   1.000000
    5        1.372893   1.000000
    6        1.386366   1.000000
    7        2.479805   1.000000
    8        2.491220   1.000000
    9        5.605073   0.000000
   10        5.622627   0.000000
   11        7.606329   0.000000
   12        7.737581   0.000000
   13        8.113984   0.000000
   14        8.145076   0.000000
   15        8.827788   0.000000
   16        8.911570   0.000000
   17       11.374758   0.000000
   18       11.407738   0.000000
   19       12.501438   0.000000
   20       12.528125   0.000000
   21       13.578187   0.000000
 
  0.2857143E+00  0.2857143E+00  0.0000000E+00  0.1749271E-01
    1       -9.167286   1.000000
    2       -9.167286   1.000000
    3       -1.566428   1.000000
    4       -1.566427   1.000000
    5        1.014934   1.000000
    6        1.014934   1.000000
    7        1.094424   1.000000
    8        1.094425   1.000000
    9        5.580182   0.000000
   10        5.580182   0.000000
   11        6.383060   0.000000
   12        6.383061   0.000000
   13       10.487853   0.000000
   14       10.487853   0.000000
   15       10.609296   0.000000
   16       10.609306   0.000000
   17       10.700657   0.000000
   18       10.700657   0.000000
   19       14.190761   0.000000
   20       14.194528   0.000000
   21       15.662085   0.000000
 
  0.4285714E+00  0.2857143E+00  0.0000000E+00  0.3498542E-01
    1       -8.665765   1.000000
    2       -8.656854   1.000000
    3       -2.641231   1.000000
    4       -2.618984   1.000000
    5        0.266848   1.000000
    6        0.279509   1.000000
    7        0.782857   1.000000
    8        0.783852   1.000000
    9        5.642660   0.000000
   10        5.668894   0.000000
   11        6.739965   0.000000
   12        6.765073   0.000000
   13       10.037570   0.000000
   14       10.099052   0.000000
   15       11.018719   0.000000
   16       11.037448   0.000000
   17       12.915970   0.000000
   18       12.945285   0.000000
   19       15.090394   0.000000
   20       15.276275   0.000000
   21       15.968064   0.000000
 
 -0.4285714E+00  0.2857143E+00  0.0000000E+00  0.3498542E-01
    1       -8.341988   1.000000
    2       -8.321817   1.000000
    3       -3.205832   1.000000
    4       -3.153033   1.000000
    5       -0.533124   1.000000
    6       -0.531144   1.000000
    7        0.914562   1.000000
    8        0.917354   1.000000
    9        5.806426   0.000000
   10        5.809111   0.000000
   11        8.316011   0.000000
   12        8.404844   0.000000
   13        9.999620   0.000000
   14       10.151950   0.000000
   15       10.556664   0.000000
   16       10.575548   0.000000
   17       12.148608   0.000000
   18       12.278670   0.000000
   19       13.776341   0.000000
   20       13.811051   0.000000
   21       15.894845   0.000000
 
 -0.2857143E+00  0.2857143E+00  0.0000000E+00  0.3498542E-01
    1       -8.571603   1.000000
    2       -8.553969   1.000000
    3       -2.866046   1.000000
    4       -2.810726   1.000000
    5       -0.562006   1.000000
    6       -0.551241   1.000000
    7        1.404045   1.000000
    8        1.410195   1.000000
    9        6.148966   0.000000
   10        6.175366   0.000000
   11        8.773176   0.000000
   12        8.891327   0.000000
   13        9.555339   0.000000
   14        9.711166   0.000000
   15        9.738730   0.000000
   16        9.743253   0.000000
   17       12.088386   0.000000
   18       12.114979   0.000000
   19       12.363972   0.000000
   20       12.510747   0.000000
   21       16.144781   0.000000
 
 -0.1428571E+00  0.2857143E+00  0.0000000E+00  0.3498542E-01
    1       -9.071714   1.000000
    2       -9.064444   1.000000
    3       -2.251873   1.000000
    4       -2.229556   1.000000
    5        0.646825   1.000000
    6        0.652260   1.000000
    7        1.981282   1.000000
    8        1.990071   1.000000
    9        5.774157   0.000000
   10        5.790901   0.000000
   11        8.211252   0.000000
   12        8.228785   0.000000
   13        8.653501   0.000000
   14        8.656889   0.000000
   15        9.435926   0.000000
   16        9.444708   0.000000
   17       11.769822   0.000000
   18       11.800006   0.000000
   19       13.057305   0.000000
   20       13.119310   0.000000
   21       14.590042   0.000000
 
  0.4285714E+00  0.4285714E+00  0.0000000E+00  0.1749271E-01
    1       -8.337952   1.000000
    2       -8.337952   1.000000
    3       -3.173038   1.000000
    4       -3.173037   1.000000
    5        0.394672   1.000000
    6        0.394672   1.000000
    7        0.424757   1.000000
    8        0.424757   1.000000
    9        5.061927   0.000000
   10        5.061928   0.000000
   11        5.732440   0.000000
   12        5.732442   0.000000
   13       12.518279   0.000000
   14       12.518283   0.000000
   15       12.711088   0.000000
   16       12.711089   0.000000
   17       12.840347   0.000000
   18       12.840347   0.000000
   19       15.182285   0.000000
   20       15.227032   0.000000
   21       16.417735   0.000000
 
 -0.4285714E+00  0.4285714E+00  0.0000000E+00  0.3498542E-01
    1       -8.181012   1.000000
    2       -8.165830   1.000000
    3       -3.385743   1.000000
    4       -3.351646   1.000000
    5       -0.215785   1.000000
    6       -0.208417   1.000000
    7        0.464339   1.000000
    8        0.464717   1.000000
    9        5.339563   0.000000
   10        5.363452   0.000000
   11        6.452496   0.000000
   12        6.472590   0.000000
   13       11.981861   0.000000
   14       12.007383   0.000000
   15       12.331821   0.000000
   16       12.371746   0.000000
   17       12.590324   0.000000
   18       12.832892   0.000000
   19       14.673233   0.000000
   20       14.708513   0.000000
   21       16.369129   0.000000
 
 -0.2857143E+00  0.4285714E+00  0.0000000E+00  0.3498542E-01
    1       -8.341991   1.000000
    2       -8.321820   1.000000
    3       -3.205835   1.000000
    4       -3.153035   1.000000
    5       -0.533127   1.000000
    6       -0.531147   1.000000
    7        0.914559   1.000000
    8        0.917352   1.000000
    9        5.806426   0.000000
   10        5.809111   0.000000
   11        8.316011   0.000000
   12        8.404844   0.000000
   13        9.999620   0.000000
   14       10.151950   0.000000
   15       10.556664   0.000000
   16       10.575548   0.000000
   17       12.148608   0.000000
   18       12.278670   0.000000
   19       13.776342   0.000000
   20       13.811051   0.000000
   21       15.819446   0.000000
 
 -0.1428571E+00  0.4285714E+00  0.0000000E+00  0.3498542E-01
    1       -8.635952   1.000000
    2       -8.624115   1.000000
    3       -3.253463   1.000000
    4       -3.225284   1.000000
    5        0.550573   1.000000
    6        0.558492   1.000000
    7        1.542602   1.000000
    8        1.547436   1.000000
    9        5.646617   0.000000
   10        5.650667   0.000000
   11        7.926957   0.000000
   12        7.950002   0.000000
   13        8.919454   0.000000
   14        8.920361   0.000000
   15       10.854071   0.000000
   16       10.880281   0.000000
   17       12.746069   0.000000
   18       12.879340   0.000000
   19       13.610500   0.000000
   20       13.705574   0.000000
   21       13.775584   0.000000
 
 -0.2857143E+00 -0.4285714E+00  0.0000000E+00  0.3498542E-01
    1       -8.665752   1.000000
    2       -8.656841   1.000000
    3       -2.641218   1.000000
    4       -2.618971   1.000000
    5        0.266860   1.000000
    6        0.279522   1.000000
    7        0.782870   1.000000
    8        0.783865   1.000000
    9        5.642660   0.000000
   10        5.668894   0.000000
   11        6.739965   0.000000
   12        6.765073   0.000000
   13       10.037571   0.000000
   14       10.099052   0.000000
   15       11.018719   0.000000
   16       11.037448   0.000000
   17       12.915970   0.000000
   18       12.945286   0.000000
   19       15.112322   0.000000
   20       15.546930   0.000000
   21       15.933543   0.000000
 
 -0.1428571E+00 -0.4285714E+00  0.0000000E+00  0.3498542E-01
    1       -8.872318   1.000000
    2       -8.864238   1.000000
    3       -2.731475   1.000000
    4       -2.711595   1.000000
    5        0.900049   1.000000
    6        0.915350   1.000000
    7        1.415745   1.000000
    8        1.416390   1.000000
    9        5.701508   0.000000
   10        5.708644   0.000000
   11        7.771531   0.000000
   12        7.802996   0.000000
   13        9.213957   0.000000
   14        9.217257   0.000000
   15        9.646691   0.000000
   16        9.706229   0.000000
   17       12.460144   0.000000
   18       12.513436   0.000000
   19       13.752449   0.000000
   20       13.757891   0.000000
   21       14.613253   0.000000
 
 -0.1428571E+00 -0.2857143E+00  0.0000000E+00  0.3498542E-01
    1       -9.467283   1.000000
    2       -9.464737   1.000000
    3       -1.075374   1.000000
    4       -1.070384   1.000000
    5        1.490656   1.000000
    6        1.505663   1.000000
    7        1.687439   1.000000
    8        1.695909   1.000000
    9        5.913439   0.000000
   10        5.921436   0.000000
   11        6.959885   0.000000
   12        6.986788   0.000000
   13        8.994726   0.000000
   14        9.009461   0.000000
   15        9.285059   0.000000
   16        9.292110   0.000000
   17       11.195710   0.000000
   18       11.206491   0.000000
   19       13.417933   0.000000
   20       13.562585   0.000000
   21       13.565832   0.000000
 
  0.4285714E+00  0.2857143E+00  0.1428571E+00  0.6997085E-01
    1       -8.992811   1.000000
    2       -8.984642   1.000000
    3       -2.096521   1.000000
    4       -2.070782   1.000000
    5        0.333782   1.000000
    6        0.337740   1.000000
    7        1.372567   1.000000
    8        1.395139   1.000000
    9        6.702635   0.000000
   10        6.783116   0.000000
   11        6.872650   0.000000
   12        6.977438   0.000000
   13        8.582973   0.000000
   14        8.689035   0.000000
   15       10.275753   0.000000
   16       10.405766   0.000000
   17       11.738431   0.000000
   18       11.787553   0.000000
   19       14.470344   0.000000
   20       14.889150   0.000000
   21       15.302921   0.000000
 
 -0.4285714E+00  0.2857143E+00  0.1428571E+00  0.6997085E-01
    1       -8.501376   1.000000
    2       -8.483879   1.000000
    3       -3.037692   1.000000
    4       -2.990661   1.000000
    5       -0.247038   1.000000
    6       -0.240181   1.000000
    7        0.937031   1.000000
    8        0.961260   1.000000
    9        6.720297   0.000000
   10        6.744012   0.000000
   11        7.625654   0.000000
   12        7.695505   0.000000
   13        9.056993   0.000000
   14        9.167261   0.000000
   15       10.768770   0.000000
   16       10.910513   0.000000
   17       12.022072   0.000000
   18       12.156268   0.000000
   19       13.966907   0.000000
   20       14.104856   0.000000
   21       15.133439   0.000000
 
 -0.2857143E+00  0.2857143E+00  0.1428571E+00  0.6997085E-01
    1       -8.501376   1.000000
    2       -8.483880   1.000000
    3       -3.037692   1.000000
    4       -2.990662   1.000000
    5       -0.247038   1.000000
    6       -0.240182   1.000000
    7        0.937031   1.000000
    8        0.961260   1.000000
    9        6.720297   0.000000
   10        6.744012   0.000000
   11        7.625654   0.000000
   12        7.695505   0.000000
   13        9.056993   0.000000
   14        9.167261   0.000000
   15       10.768770   0.000000
   16       10.910513   0.000000
   17       12.022073   0.000000
   18       12.156269   0.000000
   19       14.001969   0.000000
   20       14.149436   0.000000
   21       15.146394   0.000000
 
 -0.4285714E+00  0.4285714E+00  0.1428571E+00  0.6997085E-01
    1       -8.293074   1.000000
    2       -8.275081   1.000000
    3       -3.175501   1.000000
    4       -3.132015   1.000000
    5       -0.160796   1.000000
    6       -0.144082   1.000000
    7        0.212748   1.000000
    8        0.246364   1.000000
    9        6.282742   0.000000
   10        6.357908   0.000000
   11        6.787785   0.000000
   12        6.863034   0.000000
   13        9.842185   0.000000
   14        9.960061   0.000000
   15       11.913409   0.000000
   16       11.995660   0.000000
   17       12.882983   0.000000
   18       13.038598   0.000000
   19       14.830984   0.000000
   20       14.907958   0.000000
   21       16.370845   0.000000
 
 -0.2857143E+00  0.4285714E+00  0.1428571E+00  0.6997085E-01
    1       -8.212066   1.000000
    2       -8.187342   1.000000
    3       -3.244239   1.000000
    4       -3.179867   1.000000
    5       -0.652571   1.000000
    6       -0.636016   1.000000
    7        0.298614   1.000000
    8        0.325941   1.000000
    9        6.803285   0.000000
   10        6.805481   0.000000
   11        8.310391   0.000000
   12        8.413338   0.000000
   13        9.227863   0.000000
   14        9.366512   0.000000
   15       10.188498   0.000000
   16       10.265960   0.000000
   17       12.727228   0.000000
   18       12.877645   0.000000
   19       14.247541   0.000000
   20       14.293969   0.000000
   21       16.723602   0.000000
 
  0.0000000E+00  0.0000000E+00  0.0000000E+00  0.0000000E+00
    1      -10.160749   1.000000
    2      -10.160748   1.000000
    3        2.561458   1.000000
    4        2.561597   1.000000
    5        2.954997   0.781591
    6        2.955265   0.766316
    7        2.958458   0.635370
    8        2.959254   0.591171
    9        3.422585  -0.000000
   10        3.422616  -0.000000
   11        7.263327   0.000000
   12        7.263559   0.000000
   13        7.703907   0.000000
   14        7.704336   0.000000
   15        7.704968   0.000000
   16        7.705173   0.000000
   17       11.337282   0.000000
   18       11.340537   0.000000
   19       13.308087   0.000000
   20       13.314675   0.000000
   21       13.428410   0.000000
 
  0.1020408E-01  0.0000000E+00  0.1020408E-01  0.0000000E+00
    1      -10.159373   1.000000
    2      -10.159372   1.000000
    3        2.546556   1.000000
    4        2.546789   1.000000
    5        2.913215   1.028409
    6        2.913368   1.024270
    7        2.947597   0.730863
    8        2.947746   0.683796
    9        3.476189  -0.000000
   10        3.476194  -0.000000
   11        7.265830   0.000000
   12        7.265988   0.000000
   13        7.703142   0.000000
   14        7.704078   0.000000
   15        7.708259   0.000000
   16        7.709489   0.000000
   17       11.346861   0.000000
   18       11.349165   0.000000
   19       13.309763   0.000000
   20       13.312563   0.000000
   21       13.412489   0.000000
 
  0.2040816E-01  0.0000000E+00  0.2040816E-01  0.0000000E+00
    1      -10.155231   1.000000
    2      -10.155230   1.000000
    3        2.498381   1.000000
    4        2.498670   1.000000
    5        2.828166   1.000248
    6        2.828298   1.000329
    7        2.930663   0.997325
    8        2.931033   0.980209
    9        3.595216  -0.000000
   10        3.595220  -0.000000
   11        7.272216   0.000000
   12        7.272374   0.000000
   13        7.696960   0.000000
   14        7.699251   0.000000
   15        7.724190   0.000000
   16        7.725883   0.000000
   17       11.377110   0.000000
   18       11.378098   0.000000
   19       13.303521   0.000000
   20       13.308865   0.000000
   21       13.381257   0.000000
 
  0.3061224E-01  0.0000000E+00  0.3061224E-01  0.0000000E+00
    1      -10.148325   1.000000
    2      -10.148324   1.000000
    3        2.409518   1.000000
    4        2.409718   1.000000
    5        2.748475   1.000000
    6        2.748750   1.000000
    7        2.907184   1.034824
    8        2.907412   1.035447
    9        3.742640  -0.000000
   10        3.742648  -0.000000
   11        7.279213   0.000000
   12        7.279381   0.000000
   13        7.689729   0.000000
   14        7.692412   0.000000
   15        7.752839   0.000000
   16        7.754465   0.000000
   17       11.427738   0.000000
   18       11.431468   0.000000
   19       13.278484   0.000000
   20       13.296733   0.000000
   21       13.376529   0.000000
 
  0.4081633E-01  0.0000000E+00  0.4081633E-01  0.0000000E+00
    1      -10.138664   1.000000
    2      -10.138663   1.000000
    3        2.286222   1.000000
    4        2.286438   1.000000
    5        2.684291   1.000000
    6        2.684489   1.000000
    7        2.874502   1.009998
    8        2.874656   1.012862
    9        3.901327  -0.000000
   10        3.901337  -0.000000
   11        7.281129   0.000000
   12        7.281335   0.000000
   13        7.688153   0.000000
   14        7.690767   0.000000
   15        7.792850   0.000000
   16        7.794155   0.000000
   17       11.495089   0.000000
   18       11.498282   0.000000
   19       13.182282   0.000000
   20       13.236184   0.000000
   21       13.350952   0.000000
 
  0.5102041E-01  0.0000000E+00  0.5102041E-01  0.0000000E+00
    1      -10.126258   1.000000
    2      -10.126257   1.000000
    3        2.141251   1.000000
    4        2.141471   1.000000
    5        2.629067   1.000000
    6        2.629236   1.000000
    7        2.833383   1.000389
    8        2.833498   1.000631
    9        4.065126  -0.000000
   10        4.065137  -0.000000
   11        7.271088   0.000000
   12        7.271327   0.000000
   13        7.699934   0.000000
   14        7.702435   0.000000
   15        7.843024   0.000000
   16        7.844341   0.000000
   17       11.573373   0.000000
   18       11.577786   0.000000
   19       12.858042   0.000000
   20       13.081839   0.000000
   21       13.343349   0.000000
 
  0.6122449E-01  0.0000000E+00  0.6122449E-01  0.0000000E+00
    1      -10.111121   1.000000
    2      -10.111120   1.000000
    3        1.984472   1.000000
    4        1.984527   1.000000
    5        2.575439   1.000000
    6        2.575466   1.000000
    7        2.785423   1.000001
    8        2.785482   1.000003
    9        4.231194  -0.000000
   10        4.231200  -0.000000
   11        7.244396   0.000000
   12        7.244627   0.000000
   13        7.730615   0.000000
   14        7.733229   0.000000
   15        7.903131   0.000000
   16        7.904372   0.000000
   17       11.667132   0.000000
   18       11.672224   0.000000
   19       12.618539   0.000000
   20       12.932134   0.000000
   21       13.371962   0.000000
 
  0.7142857E-01  0.0000000E+00  0.7142857E-01  0.0000000E+00
    1      -10.093275   1.000000
    2      -10.093274   1.000000
    3        1.822126   1.000000
    4        1.822181   1.000000
    5        2.520365   1.000000
    6        2.520394   1.000000
    7        2.729726   1.000000
    8        2.729784   1.000000
    9        4.397946   0.000000
   10        4.397964   0.000000
   11        7.200767   0.000000
   12        7.200998   0.000000
   13        7.781045   0.000000
   14        7.784114   0.000000
   15        7.972099   0.000000
   16        7.973822   0.000000
   17       11.766217   0.000000
   18       11.771779   0.000000
   19       12.366535   0.000000
   20       12.697043   0.000000
   21       13.399096   0.000000
 
  0.8163265E-01  0.0000000E+00  0.8163265E-01  0.0000000E+00
    1      -10.072731   1.000000
    2      -10.072730   1.000000
    3        1.656601   1.000000
    4        1.656651   1.000000
    5        2.462173   1.000000
    6        2.462204   1.000000
    7        2.667993   1.000000
    8        2.668061   1.000000
    9        4.564313   0.000000
   10        4.564320   0.000000
   11        7.143182   0.000000
   12        7.143594   0.000000
   13        7.849454   0.000000
   14        7.852318   0.000000
   15        8.050316   0.000000
   16        8.051169   0.000000
   17       11.862365   0.000000
   18       11.867518   0.000000
   19       12.279094   0.000000
   20       12.539670   0.000000
   21       13.437881   0.000000
 
  0.9183673E-01  0.0000000E+00  0.9183673E-01  0.0000000E+00
    1      -10.049518   1.000000
    2      -10.049518   1.000000
    3        1.489377   1.000000
    4        1.489428   1.000000
    5        2.400491   1.000000
    6        2.400522   1.000000
    7        2.601024   1.000000