Automatically generated mesh
      30
Reciprocal lattice
    0.00000000000000    0.00000000000000    0.00000000000000             1
    0.14285714285714    0.00000000000000    0.00000000000000             4
    0.28571428571429    0.00000000000000    0.00000000000000             4
    0.42857142857143    0.00000000000000    0.00000000000000             4
   -0.42857142857143    0.00000000000000    0.00000000000000             4
   -0.28571428571429    0.00000000000000    0.00000000000000             4
   -0.14285714285714    0.00000000000000    0.00000000000000             4
    0.14285714285714    0.14285714285714    0.00000000000000             6
    0.28571428571429    0.14285714285714    0.00000000000000            12
    0.42857142857143    0.14285714285714    0.00000000000000            12
   -0.42857142857143    0.14285714285714    0.00000000000000            12
   -0.28571428571429    0.14285714285714    0.00000000000000            12
   -0.14285714285714    0.14285714285714    0.00000000000000            12
    0.28571428571429    0.28571428571429    0.00000000000000             6
    0.42857142857143    0.28571428571429    0.00000000000000            12
   -0.42857142857143    0.28571428571429    0.00000000000000            12
   -0.28571428571429    0.28571428571429    0.00000000000000            12
   -0.14285714285714    0.28571428571429    0.00000000000000            12
    0.42857142857143    0.42857142857143    0.00000000000000             6
   -0.42857142857143    0.42857142857143    0.00000000000000            12
   -0.28571428571429    0.42857142857143    0.00000000000000            12
   -0.14285714285714    0.42857142857143    0.00000000000000            12
   -0.28571428571429   -0.42857142857143    0.00000000000000            12
   -0.14285714285714   -0.42857142857143    0.00000000000000            12
   -0.14285714285714   -0.28571428571429    0.00000000000000            12
    0.42857142857143    0.28571428571429    0.14285714285714            24
   -0.42857142857143    0.28571428571429    0.14285714285714            24
   -0.28571428571429    0.28571428571429    0.14285714285714            24
   -0.42857142857143    0.42857142857143    0.14285714285714            24
   -0.28571428571429    0.42857142857143    0.14285714285714            24
