       N       E                     dE             d eps       ncg     rms          ort
SDA:   1    -0.917465689832E+01   -0.91747E+01   -0.42706E-01  6832   0.107E+00 0.000E+00
DMP:   2    -0.921064647245E+01   -0.35990E-01   -0.32142E-01  6832   0.523E-01 0.734E-01
DMP:   3    -0.923540639330E+01   -0.24760E-01   -0.14370E-01  6832   0.188E-01 0.447E-01
DMP:   4    -0.924949820059E+01   -0.14092E-01   -0.82118E-02  6832   0.109E-01 0.251E-01
DMP:   5    -0.925455579610E+01   -0.50576E-02   -0.28359E-02  6832   0.393E-02 0.829E-02
DMP:   6    -0.925692268899E+01   -0.23669E-02   -0.15961E-02  6832   0.219E-02 0.471E-02
DMP:   7    -0.925827463131E+01   -0.13519E-02   -0.86188E-03  6832   0.112E-02 0.272E-02
DMP:   8    -0.925897838490E+01   -0.70375E-03   -0.42908E-03  6832   0.524E-03 0.144E-02
DMP:   9    -0.925933279222E+01   -0.35441E-03   -0.20403E-03  6832   0.242E-03 0.701E-03
DMP:  10    -0.925950209415E+01   -0.16930E-03   -0.98068E-04  6832   0.116E-03 0.337E-03
DMP:  11    -0.925958410039E+01   -0.82006E-04   -0.47685E-04  6832   0.562E-04 0.165E-03
   1 F= -.92595841E+01 E0= -.92595930E+01  d E =0.268422E-04  mag=     0.0000     0.0000    -0.0000
