       N       E                     dE             d eps       ncg     rms          ort
SDA:   1    -0.918487026100E+01   -0.91849E+01   -0.50814E-01  5880   0.127E+00 0.000E+00
DMP:   2    -0.922610339746E+01   -0.41233E-01   -0.33736E-01  5880   0.541E-01 0.793E-01
DMP:   3    -0.925069272238E+01   -0.24589E-01   -0.12722E-01  5880   0.166E-01 0.398E-01
DMP:   4    -0.926172792082E+01   -0.11035E-01   -0.58208E-02  5880   0.805E-02 0.170E-01
DMP:   5    -0.926530132979E+01   -0.35734E-02   -0.20920E-02  5880   0.313E-02 0.549E-02
DMP:   6    -0.926698640726E+01   -0.16851E-02   -0.11817E-02  5880   0.174E-02 0.319E-02
DMP:   7    -0.926796511670E+01   -0.97871E-03   -0.65824E-03  5880   0.901E-03 0.195E-02
DMP:   8    -0.926850844342E+01   -0.54333E-03   -0.33429E-03  5880   0.426E-03 0.107E-02
DMP:   9    -0.926878171164E+01   -0.27327E-03   -0.15866E-03  5880   0.194E-03 0.531E-03
DMP:  10    -0.926891181763E+01   -0.13011E-03   -0.75097E-04  5880   0.908E-04 0.254E-03
DMP:  11    -0.926897407274E+01   -0.62255E-04   -0.36373E-04  5880   0.438E-04 0.123E-03
DMP:  12    -0.926900456270E+01   -0.30490E-04   -0.17988E-04  5880   0.215E-04 0.614E-04
DMP:  13    -0.926901976488E+01   -0.15202E-04   -0.89958E-05  5880   0.107E-04 0.310E-04
DMP:  14    -0.926902740613E+01   -0.76412E-05   -0.45168E-05  5880   0.531E-05 0.156E-04
   1 F= -.92690274E+01 E0= -.92690330E+01  d E =0.169035E-04  mag=     0.0000    -0.0000     0.0000
