       N       E                     dE             d eps       ncg     rms          ort
SDA:   1    -0.918484524390E+01   -0.91848E+01   -0.51276E-01  5880   0.128E+00 0.000E+00
DMP:   2    -0.922551690161E+01   -0.40672E-01   -0.31163E-01  5880   0.492E-01 0.751E-01
DMP:   3    -0.924776927764E+01   -0.22252E-01   -0.11140E-01  5880   0.146E-01 0.346E-01
DMP:   4    -0.925644834059E+01   -0.86791E-02   -0.45529E-02  5880   0.641E-02 0.130E-01
DMP:   5    -0.925945373589E+01   -0.30054E-02   -0.16348E-02  5880   0.252E-02 0.409E-02
DMP:   6    -0.926069470892E+01   -0.12410E-02   -0.87802E-03  5880   0.136E-02 0.218E-02
DMP:   7    -0.926140235189E+01   -0.70764E-03   -0.47227E-03  5880   0.665E-03 0.135E-02
DMP:   8    -0.926177223908E+01   -0.36989E-03   -0.21036E-03  5880   0.265E-03 0.682E-03
DMP:   9    -0.926193242288E+01   -0.16018E-03   -0.84344E-04  5880   0.102E-03 0.284E-03
DMP:  10    -0.926199749618E+01   -0.65073E-04   -0.35715E-04  5880   0.445E-04 0.117E-03
DMP:  11    -0.926202620692E+01   -0.28711E-04   -0.16657E-04  5880   0.210E-04 0.541E-04
DMP:  12    -0.926204013014E+01   -0.13923E-04   -0.78355E-05  5880   0.949E-05 0.264E-04
DMP:  13    -0.926204681235E+01   -0.66822E-05   -0.34874E-05  5880   0.399E-05 0.124E-04
   1 F= -.92620468E+01 E0= -.92620468E+01  d E =-.231459E-10  mag=    -0.0000    -0.0000    -0.0000
