 vasp.5.4.4.18Apr17-6-g9f103f2a35 (build Nov 08 2017 12:56:59) complex          
  
 executed on             LinuxIFC date 2020.06.22  19:30:54
 running on   56 total cores
 distrk:  each k-point on   56 cores,    1 groups
 distr:  one band on NCORES_PER_BAND=   1 cores,   56 groups


--------------------------------------------------------------------------------------------------------


 INCAR:
 POTCAR:    PAW_PBE In 08Apr2002                  
 POTCAR:    PAW_PBE As 22Sep2009                  

 ----------------------------------------------------------------------------- 
|                                                                             |
|           W    W    AA    RRRRR   N    N  II  N    N   GGGG   !!!           |
|           W    W   A  A   R    R  NN   N  II  NN   N  G    G  !!!           |
|           W    W  A    A  R    R  N N  N  II  N N  N  G       !!!           |
|           W WW W  AAAAAA  RRRRR   N  N N  II  N  N N  G  GGG   !            |
|           WW  WW  A    A  R   R   N   NN  II  N   NN  G    G                |
|           W    W  A    A  R    R  N    N  II  N    N   GGGG   !!!           |
|                                                                             |
|      For optimal performance we recommend to set                            |
|        NCORE= 4 - approx SQRT( number of cores)                             |
|      NCORE specifies how many cores store one orbital (NPAR=cpu/NCORE).     |
|      This setting can  greatly improve the performance of VASP for DFT.     |
|      The default,   NCORE=1            might be grossly inefficient         |
|      on modern multi-core architectures or massively parallel machines.     |
|      Do your own testing !!!!                                               |
|      Unfortunately you need to use the default for GW and RPA calculations. |
|      (for HF NCORE is supported but not extensively tested yet)             |
|                                                                             |
 ----------------------------------------------------------------------------- 

 POTCAR:    PAW_PBE In 08Apr2002                  
   VRHFIN =In: s2p1                                                             
   LEXCH  = PE                                                                  
   EATOM  =    53.7908 eV,    3.9535 Ry                                         
                                                                                
   TITEL  = PAW_PBE In 08Apr2002                                                
   LULTRA =        F    use ultrasoft PP ?                                      
   IUNSCR =        1    unscreen: 0-lin 1-nonlin 2-no                           
   RPACOR =    2.400    partial core radius                                     
   POMASS =  114.820; ZVAL   =    3.000    mass and valenz                      
   RCORE  =    3.100    outmost cutoff radius                                   
   RWIGS  =    3.170; RWIGS  =    1.677    wigner-seitz radius (au A)           
   ENMAX  =   95.934; ENMIN  =   71.951 eV                                      
   ICORE  =        3    local potential                                         
   LCOR   =        T    correct aug charges                                     
   LPAW   =        T    paw PP                                                  
   EAUG   =  237.125                                                            
   DEXC   =    0.000                                                            
   RMAX   =    3.168    core radius for proj-oper                               
   RAUG   =    1.300    factor for augmentation sphere                          
   RDEP   =    3.187    radius for radial grids                                 
   RDEPT  =    2.711    core radius for aug-charge                              
                                                                                
   Atomic configuration                                                         
   13 entries                                                                   
     n  l   j            E        occ.                                          
     1  0  0.50    -27747.9169   2.0000                                         
     2  0  0.50     -4154.4438   2.0000                                         
     2  1  1.50     -3728.4305   6.0000                                         
     3  0  0.50      -788.3680   2.0000                                         
     3  1  1.50      -648.9215   6.0000                                         
     3  2  2.50      -432.5893  10.0000                                         
     4  0  0.50      -119.6363   2.0000                                         
     4  1  1.50       -78.1086   6.0000                                         
     4  2  2.50       -18.6227  10.0000                                         
     5  0  0.50        -8.2107   2.0000                                         
     5  1  0.50        -2.5185   1.0000                                         
     5  2  2.50        -1.3606   0.0000                                         
     4  3  2.50        -2.7212   0.0000                                         
   Description                                                                  
     l       E           TYP  RCUT    TYP  RCUT                                 
     0     -8.2107306     23  3.100                                             
     0     -6.1485975     23  3.100                                             
     1     -2.5184867     23  3.100                                             
     1      3.2427302     23  3.100                                             
     2     -1.3605826     23  3.100                                             
     3     -1.3605826     23  3.100                                             
  local pseudopotential read in
  partial core-charges read in
  partial kinetic energy density read in
  atomic valenz-charges read in
  non local Contribution for L=           0  read in
    real space projection operators read in
  non local Contribution for L=           0  read in
    real space projection operators read in
  non local Contribution for L=           1  read in
    real space projection operators read in
  non local Contribution for L=           1  read in
    real space projection operators read in
  non local Contribution for L=           2  read in
    real space projection operators read in
    PAW grid and wavefunctions read in
 
   number of l-projection  operators is LMAX  =           5
   number of lm-projection operators is LMMAX =          13
 
 POTCAR:    PAW_PBE As 22Sep2009                  
   VRHFIN =As: s2p3                                                             
   LEXCH  = PE                                                                  
   EATOM  =   170.1867 eV,   12.5084 Ry                                         
                                                                                
   TITEL  = PAW_PBE As 22Sep2009                                                
   LULTRA =        F    use ultrasoft PP ?                                      
   IUNSCR =        1    unscreen: 0-lin 1-nonlin 2-no                           
   RPACOR =    1.900    partial core radius                                     
   POMASS =   74.922; ZVAL   =    5.000    mass and valenz                      
   RCORE  =    2.100    outmost cutoff radius                                   
   RWIGS  =    2.300; RWIGS  =    1.217    wigner-seitz radius (au A)           
   ENMAX  =  208.702; ENMIN  =  156.526 eV                                      
   ICORE  =        3    local potential                                         
   LCOR   =        T    correct aug charges                                     
   LPAW   =        T    paw PP                                                  
   EAUG   =  462.758                                                            
   DEXC   =    0.000                                                            
   RMAX   =    2.144    core radius for proj-oper                               
   RAUG   =    1.300    factor for augmentation sphere                          
   RDEP   =    2.140    radius for radial grids                                 
   RDEPT  =    1.956    core radius for aug-charge                              
                                                                                
   Atomic configuration                                                         
   10 entries                                                                   
     n  l   j            E        occ.                                          
     1  0  0.50    -11718.0418   2.0000                                         
     2  0  0.50     -1486.5454   2.0000                                         
     2  1  1.50     -1303.3889   6.0000                                         
     3  0  0.50      -190.2849   2.0000                                         
     3  1  1.50      -133.6555   6.0000                                         
     3  2  2.50       -40.6443  10.0000                                         
     4  0  0.50       -14.4936   2.0000                                         
     4  1  0.50        -5.1947   3.0000                                         
     4  2  1.50        -5.4423   0.0000                                         
     4  3  2.50        -5.4423   0.0000                                         
   Description                                                                  
     l       E           TYP  RCUT    TYP  RCUT                                 
     0    -14.4935570     23  2.100                                             
     0    -11.9212055     23  2.100                                             
     1     -5.1947127     23  2.100                                             
     1     27.2116520     23  2.100                                             
     2     -5.4423304     23  2.100                                             
     3     -1.3605826      7  2.100                                             
  local pseudopotential read in
  partial core-charges read in
  partial kinetic energy density read in
  atomic valenz-charges read in
  non local Contribution for L=           0  read in
    real space projection operators read in
  non local Contribution for L=           0  read in
    real space projection operators read in
  non local Contribution for L=           1  read in
    real space projection operators read in
  non local Contribution for L=           1  read in
    real space projection operators read in
  non local Contribution for L=           2  read in
    real space projection operators read in
    PAW grid and wavefunctions read in
 
   number of l-projection  operators is LMAX  =           5
   number of lm-projection operators is LMMAX =          13
 
  PAW_PBE In 08Apr2002                  :
 energy of atom  1       EATOM=  -53.7908
 kinetic energy error for atom=    0.0001 (will be added to EATOM!!)
  PAW_PBE As 22Sep2009                  :
 energy of atom  2       EATOM= -170.1867
 kinetic energy error for atom=    0.0022 (will be added to EATOM!!)
 
 
 POSCAR: In As                                   
  positions in direct lattice
  No initial velocities read in
 exchange correlation table for  LEXCH =        8
   RHO(1)=    0.500       N(1)  =     2000
   RHO(2)=  100.500       N(2)  =     4000
 


--------------------------------------------------------------------------------------------------------


 ion  position               nearest neighbor table
   1  0.000  0.000  0.000-   2 2.62   2 2.62   2 2.62   2 2.62
   2  0.250  0.250  0.250-   1 2.62   1 2.62   1 2.62   1 2.62
 
  LATTYP: Found a face centered cubic cell.
 ALAT       =     6.0584000000
  
  Lattice vectors:
  
 A1 = (   0.0000000000,   3.0292000000,   3.0292000000)
 A2 = (   3.0292000000,   0.0000000000,   3.0292000000)
 A3 = (   3.0292000000,   3.0292000000,   0.0000000000)


Analysis of symmetry for initial positions (statically):
=====================================================================
 Subroutine PRICEL returns:
 Original cell was already a primitive cell.
 

 Routine SETGRP: Setting up the symmetry group for a 
 face centered cubic supercell.


 Subroutine GETGRP returns: Found 24 space group operations
 (whereof 24 operations were pure point group operations)
 out of a pool of 48 trial point group operations.


The static configuration has the point symmetry T_d .


Analysis of symmetry for dynamics (positions and initial velocities):
=====================================================================
 Subroutine PRICEL returns:
 Original cell was already a primitive cell.
 

 Routine SETGRP: Setting up the symmetry group for a 
 face centered cubic supercell.


 Subroutine GETGRP returns: Found 24 space group operations
 (whereof 24 operations were pure point group operations)
 out of a pool of 48 trial point group operations.


The dynamic configuration has the point symmetry T_d .


Analysis of structural, dynamic, and magnetic symmetry:
=====================================================================
 Subroutine PRICEL returns:
 Original cell was already a primitive cell.
 

 Routine SETGRP: Setting up the symmetry group for a 
 face centered cubic supercell.


 Subroutine GETGRP returns: Found 24 space group operations
 (whereof 24 operations were pure point group operations)
 out of a pool of 48 trial point group operations.


The (compounded) configuration has the point symmetry T_d .


 Subroutine INISYM returns: Found 24 space group operations
 (whereof 24 operations are pure point group operations),
 and found     1 'primitive' translations

 
 
 KPOINTS: Automatically generated mesh            
  k-points in reciprocal lattice
Space group operators:
 irot       det(A)        alpha          n_x          n_y          n_z        tau_x        tau_y        tau_z
    1     1.000000     0.000000     1.000000     0.000000     0.000000     0.000000     0.000000     0.000000
    2     1.000000   120.000000    -0.577350    -0.577350    -0.577350     0.000000     0.000000     0.000000
    3     1.000000   120.000000     0.577350     0.577350     0.577350     0.000000     0.000000     0.000000
    4    -1.000000    90.000000     0.000000     0.000000    -1.000000     0.000000     0.000000     0.000000
    5    -1.000000   180.000000     0.000000     0.707107     0.707107     0.000000     0.000000     0.000000
    6    -1.000000    90.000000     0.000000     1.000000     0.000000     0.000000     0.000000     0.000000
    7     1.000000   180.000000     0.000000     0.000000     1.000000     0.000000     0.000000     0.000000
    8     1.000000   120.000000    -0.577350     0.577350     0.577350     0.000000     0.000000     0.000000
    9     1.000000   120.000000    -0.577350     0.577350    -0.577350     0.000000     0.000000     0.000000
   10    -1.000000    90.000000     0.000000     0.000000     1.000000     0.000000     0.000000     0.000000
   11    -1.000000    90.000000    -1.000000     0.000000     0.000000     0.000000     0.000000     0.000000
   12    -1.000000   180.000000     0.707107     0.000000     0.707107     0.000000     0.000000     0.000000
   13     1.000000   120.000000     0.577350    -0.577350     0.577350     0.000000     0.000000     0.000000
   14     1.000000   120.000000    -0.577350    -0.577350     0.577350     0.000000     0.000000     0.000000
   15     1.000000   180.000000     1.000000     0.000000     0.000000     0.000000     0.000000     0.000000
   16    -1.000000    90.000000     0.000000    -1.000000     0.000000     0.000000     0.000000     0.000000
   17    -1.000000   180.000000     0.707107     0.707107     0.000000     0.000000     0.000000     0.000000
   18    -1.000000    90.000000     1.000000     0.000000     0.000000     0.000000     0.000000     0.000000
   19     1.000000   120.000000     0.577350    -0.577350    -0.577350     0.000000     0.000000     0.000000
   20     1.000000   180.000000     0.000000     1.000000     0.000000     0.000000     0.000000     0.000000
   21     1.000000   120.000000     0.577350     0.577350    -0.577350     0.000000     0.000000     0.000000
   22    -1.000000   180.000000     0.000000    -0.707107     0.707107     0.000000     0.000000     0.000000
   23    -1.000000   180.000000     0.707107    -0.707107     0.000000     0.000000     0.000000     0.000000
   24    -1.000000   180.000000     0.707107     0.000000    -0.707107     0.000000     0.000000     0.000000

 ----------------------------------------------------------------------------- 
|                                                                             |
|           W    W    AA    RRRRR   N    N  II  N    N   GGGG   !!!           |
|           W    W   A  A   R    R  NN   N  II  NN   N  G    G  !!!           |
|           W    W  A    A  R    R  N N  N  II  N N  N  G       !!!           |
|           W WW W  AAAAAA  RRRRR   N  N N  II  N  N N  G  GGG   !            |
|           WW  WW  A    A  R   R   N   NN  II  N   NN  G    G                |
|           W    W  A    A  R    R  N    N  II  N    N   GGGG   !!!           |
|                                                                             |
|      Your generating k-point grid is not commensurate to the symmetry       |
|      of the lattice.  This can cause   slow convergence with respect        |
|      to k-points for HF type calculations                                   |
|      suggested SOLUTIONS:                                                   |
|       ) if not already the case, use automatic k-point generation           |
|       ) shift your grid to Gamma (G) (e.g. required for hex or fcc lattice) |
|                                                                             |
 ----------------------------------------------------------------------------- 

 
 Subroutine IBZKPT_HF returns following result:
 ==============================================
 
 Found    316 k-points in 1st BZ
 the following    316 k-points will be used (e.g. in the exchange kernel)
 Following reciprocal coordinates:   # in IRBZ
  0.000000  0.000000  0.000000    0.00462963   1 t-inv F
  0.166667  0.000000  0.000000    0.00462963   2 t-inv F
  0.333333  0.000000  0.000000    0.00462963   3 t-inv F
  0.500000  0.000000  0.000000    0.00462963   4 t-inv F
 -0.333333  0.000000  0.000000    0.00462963   5 t-inv F
 -0.166667  0.000000  0.000000    0.00462963   6 t-inv F
  0.166667  0.166667  0.000000    0.00462963   7 t-inv F
  0.333333  0.166667  0.000000    0.00462963   8 t-inv F
  0.500000  0.166667  0.000000    0.00462963   9 t-inv F
 -0.333333  0.166667  0.000000    0.00462963  10 t-inv F
 -0.166667  0.166667  0.000000    0.00462963  11 t-inv F
  0.333333  0.333333  0.000000    0.00462963  12 t-inv F
  0.500000  0.333333  0.000000    0.00462963  13 t-inv F
 -0.333333  0.333333  0.000000    0.00462963  14 t-inv F
 -0.166667  0.333333  0.000000    0.00462963  15 t-inv F
  0.500000  0.500000  0.000000    0.00462963  16 t-inv F
 -0.333333  0.500000  0.000000    0.00462963  17 t-inv F
 -0.166667  0.500000  0.000000    0.00462963  18 t-inv F
 -0.166667 -0.333333  0.000000    0.00462963  19 t-inv F
  0.500000  0.333333  0.166667    0.00462963  20 t-inv F
 -0.333333  0.333333  0.166667    0.00462963  21 t-inv F
 -0.333333  0.500000  0.166667    0.00462963  22 t-inv F
  0.000000  0.000000  0.000000    0.00000000  23 t-inv F
  0.026316  0.000000  0.026316    0.00000000  24 t-inv F
  0.052632  0.000000  0.052632    0.00000000  25 t-inv F
  0.078947  0.000000  0.078947    0.00000000  26 t-inv F
  0.105263  0.000000  0.105263    0.00000000  27 t-inv F
  0.131579  0.000000  0.131579    0.00000000  28 t-inv F
  0.157895  0.000000  0.157895    0.00000000  29 t-inv F
  0.184211  0.000000  0.184211    0.00000000  30 t-inv F
  0.210526  0.000000  0.210526    0.00000000  31 t-inv F
  0.236842  0.000000  0.236842    0.00000000  32 t-inv F
  0.263158  0.000000  0.263158    0.00000000  33 t-inv F
  0.289474  0.000000  0.289474    0.00000000  34 t-inv F
  0.315789  0.000000  0.315789    0.00000000  35 t-inv F
  0.342105  0.000000  0.342105    0.00000000  36 t-inv F
  0.368421  0.000000  0.368421    0.00000000  37 t-inv F
  0.394737  0.000000  0.394737    0.00000000  38 t-inv F
  0.421053  0.000000  0.421053    0.00000000  39 t-inv F
  0.447368  0.000000  0.447368    0.00000000  40 t-inv F
  0.473684  0.000000  0.473684    0.00000000  41 t-inv F
  0.500000  0.000000  0.500000    0.00000000  42 t-inv F
  0.500000  0.000000  0.500000    0.00000000  43 t-inv F
  0.500000  0.013158  0.513158    0.00000000  44 t-inv F
  0.500000  0.026316  0.526316    0.00000000  45 t-inv F
  0.500000  0.039474  0.539474    0.00000000  46 t-inv F
  0.500000  0.052632  0.552632    0.00000000  47 t-inv F
  0.500000  0.065789  0.565789    0.00000000  48 t-inv F
  0.500000  0.078947  0.578947    0.00000000  49 t-inv F
  0.500000  0.092105  0.592105    0.00000000  50 t-inv F
  0.500000  0.105263  0.605263    0.00000000  51 t-inv F
  0.500000  0.118421  0.618421    0.00000000  52 t-inv F
  0.500000  0.131579  0.631579    0.00000000  53 t-inv F
  0.500000  0.144737  0.644737    0.00000000  54 t-inv F
  0.500000  0.157895  0.657895    0.00000000  55 t-inv F
  0.500000  0.171053  0.671053    0.00000000  56 t-inv F
  0.500000  0.184211  0.684211    0.00000000  57 t-inv F
  0.500000  0.197368  0.697368    0.00000000  58 t-inv F
  0.500000  0.210526  0.710526    0.00000000  59 t-inv F
  0.500000  0.223684  0.723684    0.00000000  60 t-inv F
  0.500000  0.236842  0.736842    0.00000000  61 t-inv F
  0.500000  0.250000  0.750000    0.00000000  62 t-inv F
  0.500000  0.250000  0.750000    0.00000000  63 t-inv F
  0.500000  0.263158  0.736842    0.00000000  64 t-inv F
  0.500000  0.276316  0.723684    0.00000000  65 t-inv F
  0.500000  0.289474  0.710526    0.00000000  66 t-inv F
  0.500000  0.302632  0.697368    0.00000000  67 t-inv F
  0.500000  0.315789  0.684211    0.00000000  68 t-inv F
  0.500000  0.328947  0.671053    0.00000000  69 t-inv F
  0.500000  0.342105  0.657895    0.00000000  70 t-inv F
  0.500000  0.355263  0.644737    0.00000000  71 t-inv F
  0.500000  0.368421  0.631579    0.00000000  72 t-inv F
  0.500000  0.381579  0.618421    0.00000000  73 t-inv F
  0.500000  0.394737  0.605263    0.00000000  74 t-inv F
  0.500000  0.407895  0.592105    0.00000000  75 t-inv F
  0.500000  0.421053  0.578947    0.00000000  76 t-inv F
  0.500000  0.434211  0.565789    0.00000000  77 t-inv F
  0.500000  0.447368  0.552632    0.00000000  78 t-inv F
  0.500000  0.460526  0.539474    0.00000000  79 t-inv F
  0.500000  0.473684  0.526316    0.00000000  80 t-inv F
  0.500000  0.486842  0.513158    0.00000000  81 t-inv F
  0.500000  0.500000  0.500000    0.00000000  82 t-inv F
  0.500000  0.500000  0.500000    0.00000000  83 t-inv F
  0.473684  0.473684  0.473684    0.00000000  84 t-inv F
  0.447368  0.447368  0.447368    0.00000000  85 t-inv F
  0.421053  0.421053  0.421053    0.00000000  86 t-inv F
  0.394737  0.394737  0.394737    0.00000000  87 t-inv F
  0.368421  0.368421  0.368421    0.00000000  88 t-inv F
  0.342105  0.342105  0.342105    0.00000000  89 t-inv F
  0.315789  0.315789  0.315789    0.00000000  90 t-inv F
  0.289474  0.289474  0.289474    0.00000000  91 t-inv F
  0.263158  0.263158  0.263158    0.00000000  92 t-inv F
  0.236842  0.236842  0.236842    0.00000000  93 t-inv F
  0.210526  0.210526  0.210526    0.00000000  94 t-inv F
  0.184211  0.184211  0.184211    0.00000000  95 t-inv F
  0.157895  0.157895  0.157895    0.00000000  96 t-inv F
  0.131579  0.131579  0.131579    0.00000000  97 t-inv F
  0.105263  0.105263  0.105263    0.00000000  98 t-inv F
  0.078947  0.078947  0.078947    0.00000000  99 t-inv F
  0.052632  0.052632  0.052632    0.00000000 100 t-inv F
  0.026316  0.026316  0.026316    0.00000000 101 t-inv F
  0.000000  0.000000  0.000000    0.00000000 102 t-inv F
  0.000000  0.000000  0.000000    0.00000000 103 t-inv F
  0.019737  0.019737  0.039474    0.00000000 104 t-inv F
  0.039474  0.039474  0.078947    0.00000000 105 t-inv F
  0.059211  0.059211  0.118421    0.00000000 106 t-inv F
  0.078947  0.078947  0.157895    0.00000000 107 t-inv F
  0.098684  0.098684  0.197368    0.00000000 108 t-inv F
  0.118421  0.118421  0.236842    0.00000000 109 t-inv F
  0.138158  0.138158  0.276316    0.00000000 110 t-inv F
  0.157895  0.157895  0.315789    0.00000000 111 t-inv F
  0.177632  0.177632  0.355263    0.00000000 112 t-inv F
  0.197368  0.197368  0.394737    0.00000000 113 t-inv F
  0.217105  0.217105  0.434211    0.00000000 114 t-inv F
  0.236842  0.236842  0.473684    0.00000000 115 t-inv F
  0.256579  0.256579  0.513158    0.00000000 116 t-inv F
  0.276316  0.276316  0.552632    0.00000000 117 t-inv F
  0.296053  0.296053  0.592105    0.00000000 118 t-inv F
  0.315789  0.315789  0.631579    0.00000000 119 t-inv F
  0.335526  0.335526  0.671053    0.00000000 120 t-inv F
  0.355263  0.355263  0.710526    0.00000000 121 t-inv F
  0.375000  0.375000  0.750000    0.00000000 122 t-inv F
  0.000000  0.166667  0.000000    0.00462963   2 t-inv F
  0.000000  0.000000  0.166667    0.00462963   2 t-inv F
 -0.166667 -0.166667 -0.166667    0.00462963   2 t-inv F
  0.000000  0.333333  0.000000    0.00462963   3 t-inv F
  0.000000  0.000000  0.333333    0.00462963   3 t-inv F
 -0.333333 -0.333333 -0.333333    0.00462963   3 t-inv F
  0.000000  0.500000  0.000000    0.00462963   4 t-inv F
  0.000000  0.000000  0.500000    0.00462963   4 t-inv F
 -0.500000 -0.500000 -0.500000    0.00462963   4 t-inv F
  0.000000 -0.333333  0.000000    0.00462963   5 t-inv F
  0.000000  0.000000 -0.333333    0.00462963   5 t-inv F
  0.333333  0.333333  0.333333    0.00462963   5 t-inv F
  0.000000 -0.166667  0.000000    0.00462963   6 t-inv F
  0.000000  0.000000 -0.166667    0.00462963   6 t-inv F
  0.166667  0.166667  0.166667    0.00462963   6 t-inv F
  0.000000  0.166667  0.166667    0.00462963   7 t-inv F
  0.166667  0.000000  0.166667    0.00462963   7 t-inv F
 -0.166667 -0.166667  0.000000    0.00462963   7 t-inv F
 -0.166667  0.000000 -0.166667    0.00462963   7 t-inv F
  0.000000 -0.166667 -0.166667    0.00462963   7 t-inv F
  0.000000  0.333333  0.166667    0.00462963   8 t-inv F
  0.166667  0.000000  0.333333    0.00462963   8 t-inv F
 -0.166667 -0.166667  0.166667    0.00462963   8 t-inv F
 -0.333333 -0.166667 -0.333333    0.00462963   8 t-inv F
  0.166667  0.333333  0.000000    0.00462963   8 t-inv F
  0.166667 -0.166667 -0.166667    0.00462963   8 t-inv F
 -0.333333 -0.333333 -0.166667    0.00462963   8 t-inv F
  0.000000  0.166667  0.333333    0.00462963   8 t-inv F
 -0.166667  0.166667 -0.166667    0.00462963   8 t-inv F
 -0.166667 -0.333333 -0.333333    0.00462963   8 t-inv F
  0.333333  0.000000  0.166667    0.00462963   8 t-inv F
  0.000000  0.500000  0.166667    0.00462963   9 t-inv F
  0.166667  0.000000  0.500000    0.00462963   9 t-inv F
 -0.166667 -0.166667  0.333333    0.00462963   9 t-inv F
 -0.500000 -0.333333 -0.500000    0.00462963   9 t-inv F
  0.166667  0.500000  0.000000    0.00462963   9 t-inv F
  0.333333 -0.166667 -0.166667    0.00462963   9 t-inv F
 -0.500000 -0.500000 -0.333333    0.00462963   9 t-inv F
  0.000000  0.166667  0.500000    0.00462963   9 t-inv F
 -0.166667  0.333333 -0.166667    0.00462963   9 t-inv F
 -0.333333 -0.500000 -0.500000    0.00462963   9 t-inv F
  0.500000  0.000000  0.166667    0.00462963   9 t-inv F
  0.000000 -0.333333  0.166667    0.00462963  10 t-inv F
  0.166667  0.000000 -0.333333    0.00462963  10 t-inv F
 -0.166667 -0.166667 -0.500000    0.00462963  10 t-inv F
  0.333333  0.500000  0.333333    0.00462963  10 t-inv F
  0.166667 -0.333333  0.000000    0.00462963  10 t-inv F
 -0.500000 -0.166667 -0.166667    0.00462963  10 t-inv F
  0.333333  0.333333  0.500000    0.00462963  10 t-inv F
  0.000000  0.166667 -0.333333    0.00462963  10 t-inv F
 -0.166667 -0.500000 -0.166667    0.00462963  10 t-inv F
  0.500000  0.333333  0.333333    0.00462963  10 t-inv F
 -0.333333  0.000000  0.166667    0.00462963  10 t-inv F
  0.000000 -0.166667  0.166667    0.00462963  11 t-inv F
  0.166667  0.000000 -0.166667    0.00462963  11 t-inv F
 -0.166667 -0.166667 -0.333333    0.00462963  11 t-inv F
  0.166667  0.333333  0.166667    0.00462963  11 t-inv F
  0.166667 -0.166667  0.000000    0.00462963  11 t-inv F
 -0.333333 -0.166667 -0.166667    0.00462963  11 t-inv F
  0.166667  0.166667  0.333333    0.00462963  11 t-inv F
  0.000000  0.166667 -0.166667    0.00462963  11 t-inv F
 -0.166667 -0.333333 -0.166667    0.00462963  11 t-inv F
  0.333333  0.166667  0.166667    0.00462963  11 t-inv F
 -0.166667  0.000000  0.166667    0.00462963  11 t-inv F
  0.000000  0.333333  0.333333    0.00462963  12 t-inv F
  0.333333  0.000000  0.333333    0.00462963  12 t-inv F
 -0.333333 -0.333333  0.000000    0.00462963  12 t-inv F
 -0.333333  0.000000 -0.333333    0.00462963  12 t-inv F
  0.000000 -0.333333 -0.333333    0.00462963  12 t-inv F
  0.000000  0.500000  0.333333    0.00462963  13 t-inv F
  0.333333  0.000000  0.500000    0.00462963  13 t-inv F
 -0.333333 -0.333333  0.166667    0.00462963  13 t-inv F
 -0.500000 -0.166667 -0.500000    0.00462963  13 t-inv F
  0.333333  0.500000  0.000000    0.00462963  13 t-inv F
  0.166667 -0.333333 -0.333333    0.00462963  13 t-inv F
 -0.500000 -0.500000 -0.166667    0.00462963  13 t-inv F
  0.000000  0.333333  0.500000    0.00462963  13 t-inv F
 -0.333333  0.166667 -0.333333    0.00462963  13 t-inv F
 -0.166667 -0.500000 -0.500000    0.00462963  13 t-inv F
  0.500000  0.000000  0.333333    0.00462963  13 t-inv F
  0.000000 -0.333333  0.333333    0.00462963  14 t-inv F
  0.333333  0.000000 -0.333333    0.00462963  14 t-inv F
 -0.333333 -0.333333 -0.666667    0.00462963  14 t-inv F
  0.333333  0.666667  0.333333    0.00462963  14 t-inv F
  0.333333 -0.333333  0.000000    0.00462963  14 t-inv F
 -0.666667 -0.333333 -0.333333    0.00462963  14 t-inv F
  0.333333  0.333333  0.666667    0.00462963  14 t-inv F
  0.000000  0.333333 -0.333333    0.00462963  14 t-inv F
 -0.333333 -0.666667 -0.333333    0.00462963  14 t-inv F
  0.666667  0.333333  0.333333    0.00462963  14 t-inv F
 -0.333333  0.000000  0.333333    0.00462963  14 t-inv F
  0.000000 -0.166667  0.333333    0.00462963  15 t-inv F
  0.333333  0.000000 -0.166667    0.00462963  15 t-inv F
 -0.333333 -0.333333 -0.500000    0.00462963  15 t-inv F
  0.166667  0.500000  0.166667    0.00462963  15 t-inv F
  0.333333 -0.166667  0.000000    0.00462963  15 t-inv F
 -0.500000 -0.333333 -0.333333    0.00462963  15 t-inv F
  0.166667  0.166667  0.500000    0.00462963  15 t-inv F
  0.000000  0.333333 -0.166667    0.00462963  15 t-inv F
 -0.333333 -0.500000 -0.333333    0.00462963  15 t-inv F
  0.500000  0.166667  0.166667    0.00462963  15 t-inv F
 -0.166667  0.000000  0.333333    0.00462963  15 t-inv F
  0.000000  0.500000  0.500000    0.00462963  16 t-inv F
  0.500000  0.000000  0.500000    0.00462963  16 t-inv F
  0.000000 -0.333333  0.500000    0.00462963  17 t-inv F
  0.500000  0.000000 -0.333333    0.00462963  17 t-inv F
 -0.500000 -0.500000 -0.833333    0.00462963  17 t-inv F
  0.333333  0.833333  0.333333    0.00462963  17 t-inv F
  0.500000 -0.333333  0.000000    0.00462963  17 t-inv F
 -0.833333 -0.500000 -0.500000    0.00462963  17 t-inv F
  0.333333  0.333333  0.833333    0.00462963  17 t-inv F
  0.000000  0.500000 -0.333333    0.00462963  17 t-inv F
 -0.500000 -0.833333 -0.500000    0.00462963  17 t-inv F
  0.833333  0.333333  0.333333    0.00462963  17 t-inv F
 -0.333333  0.000000  0.500000    0.00462963  17 t-inv F
  0.000000 -0.166667  0.500000    0.00462963  18 t-inv F
  0.500000  0.000000 -0.166667    0.00462963  18 t-inv F
 -0.500000 -0.500000 -0.666667    0.00462963  18 t-inv F
  0.166667  0.666667  0.166667    0.00462963  18 t-inv F
  0.500000 -0.166667  0.000000    0.00462963  18 t-inv F
 -0.666667 -0.500000 -0.500000    0.00462963  18 t-inv F
  0.166667  0.166667  0.666667    0.00462963  18 t-inv F
  0.000000  0.500000 -0.166667    0.00462963  18 t-inv F
 -0.500000 -0.666667 -0.500000    0.00462963  18 t-inv F
  0.666667  0.166667  0.166667    0.00462963  18 t-inv F
 -0.166667  0.000000  0.500000    0.00462963  18 t-inv F
  0.000000 -0.166667 -0.333333    0.00462963  19 t-inv F
 -0.333333  0.000000 -0.166667    0.00462963  19 t-inv F
  0.333333  0.333333  0.166667    0.00462963  19 t-inv F
  0.166667 -0.166667  0.166667    0.00462963  19 t-inv F
 -0.333333 -0.166667  0.000000    0.00462963  19 t-inv F
  0.166667  0.333333  0.333333    0.00462963  19 t-inv F
  0.166667  0.166667 -0.166667    0.00462963  19 t-inv F
  0.000000 -0.333333 -0.166667    0.00462963  19 t-inv F
  0.333333  0.166667  0.333333    0.00462963  19 t-inv F
 -0.166667  0.166667  0.166667    0.00462963  19 t-inv F
 -0.166667  0.000000 -0.333333    0.00462963  19 t-inv F
  0.166667  0.500000  0.333333    0.00462963  20 t-inv F
  0.333333  0.166667  0.500000    0.00462963  20 t-inv F
 -0.333333 -0.166667  0.166667    0.00462963  20 t-inv F
 -0.500000 -0.166667 -0.333333    0.00462963  20 t-inv F
 -0.166667  0.333333  0.166667    0.00462963  20 t-inv F
  0.166667  0.333333 -0.166667    0.00462963  20 t-inv F
  0.166667 -0.166667 -0.333333    0.00462963  20 t-inv F
 -0.333333 -0.166667 -0.500000    0.00462963  20 t-inv F
 -0.333333 -0.500000 -0.166667    0.00462963  20 t-inv F
  0.166667 -0.166667  0.333333    0.00462963  20 t-inv F
  0.166667 -0.333333 -0.166667    0.00462963  20 t-inv F
 -0.166667  0.166667  0.333333    0.00462963  20 t-inv F
 -0.333333  0.166667 -0.166667    0.00462963  20 t-inv F
 -0.500000 -0.333333 -0.166667    0.00462963  20 t-inv F
 -0.166667 -0.333333 -0.500000    0.00462963  20 t-inv F
  0.333333  0.166667 -0.166667    0.00462963  20 t-inv F
 -0.166667  0.166667 -0.333333    0.00462963  20 t-inv F
  0.333333 -0.166667  0.166667    0.00462963  20 t-inv F
 -0.166667 -0.333333  0.166667    0.00462963  20 t-inv F
 -0.166667 -0.500000 -0.333333    0.00462963  20 t-inv F
  0.500000  0.166667  0.333333    0.00462963  20 t-inv F
  0.333333  0.500000  0.166667    0.00462963  20 t-inv F
  0.166667  0.333333  0.500000    0.00462963  20 t-inv F
  0.166667 -0.333333  0.333333    0.00462963  21 t-inv F
  0.333333  0.166667 -0.333333    0.00462963  21 t-inv F
 -0.333333 -0.166667 -0.666667    0.00462963  21 t-inv F
  0.333333  0.666667  0.500000    0.00462963  21 t-inv F
 -0.166667 -0.500000  0.166667    0.00462963  21 t-inv F
  0.166667 -0.500000 -0.166667    0.00462963  21 t-inv F
 -0.666667 -0.166667 -0.333333    0.00462963  21 t-inv F
  0.500000  0.666667  0.333333    0.00462963  21 t-inv F
  0.500000  0.333333  0.666667    0.00462963  21 t-inv F
  0.166667 -0.166667 -0.500000    0.00462963  21 t-inv F
 -0.666667 -0.333333 -0.166667    0.00462963  21 t-inv F
 -0.166667  0.166667 -0.500000    0.00462963  21 t-inv F
 -0.333333 -0.666667 -0.166667    0.00462963  21 t-inv F
  0.333333  0.500000  0.666667    0.00462963  21 t-inv F
  0.666667  0.500000  0.333333    0.00462963  21 t-inv F
 -0.500000  0.166667 -0.166667    0.00462963  21 t-inv F
 -0.166667 -0.666667 -0.333333    0.00462963  21 t-inv F
 -0.500000 -0.166667  0.166667    0.00462963  21 t-inv F
 -0.166667 -0.333333 -0.666667    0.00462963  21 t-inv F
  0.666667  0.333333  0.500000    0.00462963  21 t-inv F
 -0.333333  0.166667  0.333333    0.00462963  21 t-inv F
  0.333333 -0.333333  0.166667    0.00462963  21 t-inv F
  0.166667  0.333333 -0.333333    0.00462963  21 t-inv F
  0.166667 -0.333333  0.500000    0.00462963  22 t-inv F
  0.500000  0.166667 -0.333333    0.00462963  22 t-inv F
 -0.500000 -0.333333 -0.833333    0.00462963  22 t-inv F
  0.333333  0.833333  0.500000    0.00462963  22 t-inv F
 -0.166667 -0.500000  0.333333    0.00462963  22 t-inv F
  0.333333 -0.500000 -0.166667    0.00462963  22 t-inv F
  0.500000  0.833333  0.333333    0.00462963  22 t-inv F
  0.500000  0.333333  0.833333    0.00462963  22 t-inv F
 -0.833333 -0.500000 -0.333333    0.00462963  22 t-inv F
 -0.166667  0.333333 -0.500000    0.00462963  22 t-inv F
 -0.333333 -0.833333 -0.500000    0.00462963  22 t-inv F


--------------------------------------------------------------------------------------------------------




 Dimension of arrays:
   k-points           NKPTS =    122   k-points in BZ     NKDIM =    316   number of bands    NBANDS=     56
   number of dos      NEDOS =    301   number of ions     NIONS =      2
   non local maximal  LDIM  =      5   non local SUM 2l+1 LMDIM =     13
   total plane-waves  NPLWV =   5832
   max r-space proj   IRMAX =      1   max aug-charges    IRDMAX=  12033
   dimension x,y,z NGX =    18 NGY =   18 NGZ =   18
   dimension x,y,z NGXF=    36 NGYF=   36 NGZF=   36
   support grid    NGXF=    36 NGYF=   36 NGZF=   36
   ions per type =               1   1
   NGX,Y,Z   is equivalent  to a cutoff of   6.99,  6.99,  6.99 a.u.
   NGXF,Y,Z  is equivalent  to a cutoff of  13.97, 13.97, 13.97 a.u.

 SYSTEM =  unknown system                          
 POSCAR =  In As                                   

 Startparameter for this run:
   NWRITE =      2    write-flag & timer
   PREC   = n         normal or accurate (medium, high low for compatibility)
   ISTART =      1    job   : 0-new  1-cont  2-samecut
   ICHARG =     11    charge: 1-file 2-atom 10-const
   ISPIN  =      1    spin polarized calculation?
   LNONCOLLINEAR =      T non collinear calculations
   LSORBIT =      T    spin-orbit coupling
   INIWAV =      1    electr: 0-lowe 1-rand  2-diag
   LASPH  =      F    aspherical Exc in radial PAW
   METAGGA=      F    non-selfconsistent MetaGGA calc.

 Electronic Relaxation 1
   ENCUT  =  300.0 eV  22.05 Ry    4.70 a.u.   6.05  6.05  6.05*2*pi/ulx,y,z
   ENINI  =  300.0     initial cutoff
   ENAUG  =  462.8 eV  augmentation charge cutoff
   NELM   =     60;   NELMIN=  2; NELMDL=  0     # of ELM steps 
   EDIFF  = 0.1E-03   stopping-criterion for ELM
   LREAL  =      F    real-space projection
   NLSPLINE    = F    spline interpolate recip. space projectors
   LCOMPAT=      F    compatible to vasp.4.4
   GGA_COMPAT  = T    GGA compatible to vasp.4.4-vasp.4.6
   LMAXPAW     = -100 max onsite density
   LMAXMIX     =    2 max onsite mixed and CHGCAR
   VOSKOWN=      0    Vosko Wilk Nusair interpolation
   ROPT   =    0.00000   0.00000
 Ionic relaxation
   EDIFFG = 0.1E-02   stopping-criterion for IOM
   NSW    =      0    number of steps for IOM
   NBLOCK =      1;   KBLOCK =      1    inner block; outer block 
   IBRION =     -1    ionic relax: 0-MD 1-quasi-New 2-CG
   NFREE  =      0    steps in history (QN), initial steepest desc. (CG)
   ISIF   =      0    stress and relaxation
   IWAVPR =     10    prediction:  0-non 1-charg 2-wave 3-comb
   ISYM   =      3    0-nonsym 1-usesym 2-fastsym
   LCORR  =      T    Harris-Foulkes like correction to forces

   POTIM  = 0.5000    time-step for ionic-motion
   TEIN   =    0.0    initial temperature
   TEBEG  =    0.0;   TEEND  =   0.0 temperature during run
   SMASS  =  -3.00    Nose mass-parameter (am)
   estimated Nose-frequenzy (Omega)   =  0.10E-29 period in steps =****** mass=  -0.419E-27a.u.
   SCALEE = 1.0000    scale energy and forces
   NPACO  =    256;   APACO  = 16.0  distance and # of slots for P.C.
   PSTRESS=    0.0 pullay stress

  Mass of Ions in am
   POMASS = 114.82 74.92
  Ionic Valenz
   ZVAL   =   3.00  5.00
  Atomic Wigner-Seitz radii
   RWIGS  =  -1.00 -1.00
  virtual crystal weights 
   VCA    =   1.00  1.00
   NELECT =       8.0000    total number of electrons
   NUPDOWN=      -1.0000    fix difference up-down

 DOS related values:
   EMIN   =  10.00;   EMAX   =-10.00  energy-range for DOS
   EFERMI =   0.00
   ISMEAR =     1;   SIGMA  =   0.05  broadening in eV -4-tet -1-fermi 0-gaus

 Electronic relaxation 2 (details)
   IALGO  =     53    algorithm
   LDIAG  =      T    sub-space diagonalisation (order eigenvalues)
   LSUBROT=      F    optimize rotation matrix (better conditioning)
   TURBO    =      0    0=normal 1=particle mesh
   IRESTART =      0    0=no restart 2=restart with 2 vectors
   NREBOOT  =      0    no. of reboots
   NMIN     =      0    reboot dimension
   EREF     =   0.00    reference energy to select bands
   IMIX   =      4    mixing-type and parameters
     AMIX     =   0.40;   BMIX     =  1.00
     AMIX_MAG =   1.60;   BMIX_MAG =  1.00
     AMIN     =   0.10
     WC   =   100.;   INIMIX=   1;  MIXPRE=   1;  MAXMIX= -45

 Intra band minimization:
   WEIMIN = 0.0000     energy-eigenvalue tresh-hold
   EBREAK =  0.45E-06  absolut break condition
   DEPER  =   0.30     relativ break condition  

   TIME   =   0.40     timestep for ELM

  volume/ion in A,a.u.               =      27.80       187.58
  Fermi-wavevector in a.u.,A,eV,Ry     =   0.857894  1.621184 10.013641  0.735982
  Thomas-Fermi vector in A             =   1.975016
 
 Write flags
   LWAVE        =      F    write WAVECAR
   LDOWNSAMPLE  =      F    k-point downsampling of WAVECAR
   LCHARG       =      F    write CHGCAR
   LVTOT        =      F    write LOCPOT, total local potential
   LVHAR        =      F    write LOCPOT, Hartree potential only
   LELF         =      F    write electronic localiz. function (ELF)
   LORBIT       =      0    0 simple, 1 ext, 2 COOP (PROOUT), +10 PAW based schemes


 Dipole corrections
   LMONO  =      F    monopole corrections only (constant potential shift)
   LDIPOL =      F    correct potential (dipole corrections)
   IDIPOL =      0    1-x, 2-y, 3-z, 4-all directions 
   EPSILON=  1.0000000 bulk dielectric constant

 Exchange correlation treatment:
   GGA     =    PE    GGA type
   LEXCH   =     8    internal setting for exchange type
   VOSKOWN=      0    Vosko Wilk Nusair interpolation
   EXXOEP  =     0    0=HF, 1=EXX-LHF (local Hartree Fock) 2=EXX OEP
   LHFCALC =     T    Hartree Fock is set to
   LSYMGRAD=     F    symmetrize gradient (conserves proper symmetry)
   PRECFOCK=fast      Normal, Fast or Accurate (Low or Medium for compatibility)
   LRHFCALC=     F    long range Hartree Fock
   LRSCOR  =     F    long range correlation only (use DFT for short range part)
   LTHOMAS =     F    Thomas Fermi screening in HF
   LMODELHF=     F    short range full HF, long range fraction AEXX
   ENCUT4O =  -1.0   cutoff for four orbital integrals eV
   LMAXFOCK=     4    L truncation for augmentation on plane wave grid
   LMAXFOCKAE=  -1    L truncation for all-electron charge restoration on plane wave grid
   NMAXFOCKAE=   1    number of basis functions for all-electron charge restoration
   LFOCKAEDFT=     F  apply the AE augmentation even for DFT
   NKREDX  =     1    reduce k-point grid by
   NKREDY  =     1    reduce k-point grid by
   NKREDZ  =     1    reduce k-point grid by
   SHIFTRED=     F    shift reduced grid of Gamma
   HFKIDENT=     F    idential grid for each k-point
   ODDONLY =     F    use only odd q-grid points
   EVENONLY=     F    use only even q-grid points
   HFALPHA =   -1.0000 decay constant for conv. correction
   MCALPHA =    0.0000 extent of test-charge in conv. correction in multipole expansion
   AEXX    =    0.2500 exact exchange contribution
   HFSCREEN=    0.2000 screening length (either q_TF or 0.3 A-1)
   HFSCREENC=   0.2000 screening length for correlation (either q_TF or 0.3 A-1)
   HFRCUT  =    0.0000 spherical cutoff for potential kernel
   ALDAX   =    0.7500 LDA exchange part
   AGGAX   =    0.7500 GGA exchange part
   ALDAC   =    1.0000 LDA correlation
   AGGAC   =    1.0000 GGA correlation
   ENCUTFOCK=  -1.0 apply spherical cutoff to Coloumb kernel
   NBANDSGWLOW=     1    first orbital included in HF term
   NBLOCK_FOCK=    64    blocking factor in FOCK_ACC
 Linear response parameters
   LEPSILON=     F    determine dielectric tensor
   LRPA    =     F    only Hartree local field effects (RPA)
   LNABLA  =     F    use nabla operator in PAW spheres
   LVEL    =     F    velocity operator in full k-point grid
   LINTERFAST=   F  fast interpolation
   KINTER  =     0    interpolate to denser k-point grid
   CSHIFT  =0.1000    complex shift for real part using Kramers Kronig
   OMEGAMAX=  -1.0    maximum frequency
   DEG_THRESHOLD= 0.2000000E-02 threshold for treating states as degnerate
   RTIME   =   -0.100 relaxation time in fs
  (WPLASMAI=    0.000 imaginary part of plasma frequency in eV, 0.658/RTIME)
   DFIELD  = 0.0000000 0.0000000 0.0000000 field for delta impulse in time
 
 Orbital magnetization related:
   ORBITALMAG=     F  switch on orbital magnetization
   LCHIMAG   =     F  perturbation theory with respect to B field
   DQ        =  0.001000  dq finite difference perturbation B field
   LLRAUG    =     F  two centre corrections for induced B field



--------------------------------------------------------------------------------------------------------


 Static calculation
 charge density and potential remain constant during run
 non collinear spin polarized calculation
 Conjugate gradient for all bands (Freysoldt, et al. PRB 79, 241103 (2009))
 perform sub-space diagonalisation
    before iterative eigenvector-optimisation
 no mixing
 using additional bands           52
 reciprocal scheme for non local part
 use partial core corrections
 calculate Harris-corrections to forces 
   (improved forces if not selfconsistent)
 use gradient corrections 
 WARNING: stress and forces are not correct
  (second derivative of E(xc) not defined)
 use of overlap-Matrix (Vanderbilt PP)
 Methfessel and Paxton  Order N= 1 SIGMA  =   0.05


--------------------------------------------------------------------------------------------------------


  energy-cutoff  :      300.00
  volume of cell :       55.59
      direct lattice vectors                 reciprocal lattice vectors
     0.000000000  3.029200000  3.029200000    -0.165060082  0.165060082  0.165060082
     3.029200000  0.000000000  3.029200000     0.165060082 -0.165060082  0.165060082
     3.029200000  3.029200000  0.000000000     0.165060082  0.165060082 -0.165060082

  length of vectors
     4.283935723  4.283935723  4.283935723     0.285892448  0.285892448  0.285892448


 
 old parameters found on file WAVECAR:
  energy-cutoff  :      300.00
  volume of cell :       55.59
      direct lattice vectors                 reciprocal lattice vectors
     0.000000000  3.029200000  3.029200000    -0.165060082  0.165060082  0.165060082
     3.029200000  0.000000000  3.029200000     0.165060082 -0.165060082  0.165060082
     3.029200000  3.029200000  0.000000000     0.165060082  0.165060082 -0.165060082

  length of vectors

 
 k-points in units of 2pi/SCALE and weight: Automatically generated mesh            
   0.00000000  0.00000000  0.00000000       0.005
  -0.02751001  0.02751001  0.02751001       0.019
  -0.05502003  0.05502003  0.05502003       0.019
  -0.08253004  0.08253004  0.08253004       0.019
   0.05502003 -0.05502003 -0.05502003       0.019
   0.02751001 -0.02751001 -0.02751001       0.019
   0.00000000  0.00000000  0.05502003       0.028
  -0.02751001  0.02751001  0.08253004       0.056
  -0.05502003  0.05502003  0.11004005       0.056
   0.08253004 -0.08253004 -0.02751001       0.056
   0.05502003 -0.05502003  0.00000000       0.056
   0.00000000  0.00000000  0.11004005       0.028
  -0.02751001  0.02751001  0.13755007       0.056
   0.11004005 -0.11004005  0.00000000       0.056
   0.08253004 -0.08253004  0.02751001       0.056
   0.00000000  0.00000000  0.16506008       0.014
   0.13755007 -0.13755007  0.02751001       0.056
   0.11004005 -0.11004005  0.05502003       0.056
  -0.02751001  0.02751001 -0.08253004       0.056
  -0.00000000  0.05502003  0.11004005       0.111
   0.13755007 -0.08253004 -0.02751001       0.111
   0.16506008 -0.11004005  0.00000000       0.056
   0.00000000  0.00000000  0.00000000       0.000
   0.00000000  0.00868737  0.00000000       0.000
   0.00000000  0.01737475  0.00000000       0.000
   0.00000000  0.02606212  0.00000000       0.000
   0.00000000  0.03474949  0.00000000       0.000
   0.00000000  0.04343686  0.00000000       0.000
   0.00000000  0.05212424  0.00000000       0.000
   0.00000000  0.06081161  0.00000000       0.000
   0.00000000  0.06949898  0.00000000       0.000
   0.00000000  0.07818635  0.00000000       0.000
   0.00000000  0.08687373  0.00000000       0.000
   0.00000000  0.09556110  0.00000000       0.000
   0.00000000  0.10424847  0.00000000       0.000
   0.00000000  0.11293585  0.00000000       0.000
   0.00000000  0.12162322  0.00000000       0.000
   0.00000000  0.13031059  0.00000000       0.000
   0.00000000  0.13899796  0.00000000       0.000
   0.00000000  0.14768534  0.00000000       0.000
   0.00000000  0.15637271  0.00000000       0.000
   0.00000000  0.16506008  0.00000000       0.000
   0.00000000  0.16506008  0.00000000       0.000
   0.00434369  0.16506008 -0.00000000       0.000
   0.00868737  0.16506008  0.00000000       0.000
   0.01303106  0.16506008  0.00000000       0.000
   0.01737475  0.16506008  0.00000000       0.000
   0.02171843  0.16506008  0.00000000       0.000
   0.02606212  0.16506008 -0.00000000       0.000
   0.03040580  0.16506008  0.00000000       0.000
   0.03474949  0.16506008  0.00000000       0.000
   0.03909318  0.16506008  0.00000000       0.000
   0.04343686  0.16506008  0.00000000       0.000
   0.04778055  0.16506008  0.00000000       0.000
   0.05212424  0.16506008  0.00000000       0.000
   0.05646792  0.16506008  0.00000000       0.000
   0.06081161  0.16506008 -0.00000000       0.000
   0.06515530  0.16506008 -0.00000000       0.000
   0.06949898  0.16506008  0.00000000       0.000
   0.07384267  0.16506008  0.00000000       0.000
   0.07818635  0.16506008  0.00000000       0.000
   0.08253004  0.16506008  0.00000000       0.000
   0.08253004  0.16506008  0.00000000       0.000
   0.08253004  0.16071640  0.00434369       0.000
   0.08253004  0.15637271  0.00868737       0.000
   0.08253004  0.15202902  0.01303106       0.000
   0.08253004  0.14768534  0.01737475       0.000
   0.08253004  0.14334165  0.02171843       0.000
   0.08253004  0.13899796  0.02606212       0.000
   0.08253004  0.13465428  0.03040580       0.000
   0.08253004  0.13031059  0.03474949       0.000
   0.08253004  0.12596690  0.03909318       0.000
   0.08253004  0.12162322  0.04343686       0.000
   0.08253004  0.11727953  0.04778055       0.000
   0.08253004  0.11293585  0.05212424       0.000
   0.08253004  0.10859216  0.05646792       0.000
   0.08253004  0.10424847  0.06081161       0.000
   0.08253004  0.09990479  0.06515530       0.000
   0.08253004  0.09556110  0.06949898       0.000
   0.08253004  0.09121741  0.07384267       0.000
   0.08253004  0.08687373  0.07818635       0.000
   0.08253004  0.08253004  0.08253004       0.000
   0.08253004  0.08253004  0.08253004       0.000
   0.07818635  0.07818635  0.07818635       0.000
   0.07384267  0.07384267  0.07384267       0.000
   0.06949898  0.06949898  0.06949898       0.000
   0.06515530  0.06515530  0.06515530       0.000
   0.06081161  0.06081161  0.06081161       0.000
   0.05646792  0.05646792  0.05646792       0.000
   0.05212424  0.05212424  0.05212424       0.000
   0.04778055  0.04778055  0.04778055       0.000
   0.04343686  0.04343686  0.04343686       0.000
   0.03909318  0.03909318  0.03909318       0.000
   0.03474949  0.03474949  0.03474949       0.000
   0.03040580  0.03040580  0.03040580       0.000
   0.02606212  0.02606212  0.02606212       0.000
   0.02171843  0.02171843  0.02171843       0.000
   0.01737475  0.01737475  0.01737475       0.000
   0.01303106  0.01303106  0.01303106       0.000
   0.00868737  0.00868737  0.00868737       0.000
   0.00434369  0.00434369  0.00434369       0.000
   0.00000000  0.00000000  0.00000000       0.000
   0.00000000  0.00000000  0.00000000       0.000
   0.00651553  0.00651553  0.00000000       0.000
   0.01303106  0.01303106  0.00000000       0.000
   0.01954659  0.01954659  0.00000000       0.000
   0.02606212  0.02606212  0.00000000       0.000
   0.03257765  0.03257765  0.00000000       0.000
   0.03909318  0.03909318  0.00000000       0.000
   0.04560871  0.04560871  0.00000000       0.000
   0.05212424  0.05212424  0.00000000       0.000
   0.05863977  0.05863977  0.00000000       0.000
   0.06515530  0.06515530  0.00000000       0.000
   0.07167083  0.07167083  0.00000000       0.000
   0.07818635  0.07818635  0.00000000       0.000
   0.08470188  0.08470188  0.00000000       0.000
   0.09121741  0.09121741  0.00000000       0.000
   0.09773294  0.09773294  0.00000000       0.000
   0.10424847  0.10424847  0.00000000       0.000
   0.11076400  0.11076400  0.00000000       0.000
   0.11727953  0.11727953  0.00000000       0.000
   0.12379506  0.12379506  0.00000000       0.000
 
 k-points in reciprocal lattice and weights: Automatically generated mesh            
   0.00000000  0.00000000  0.00000000       0.005
   0.16666667  0.00000000  0.00000000       0.019
   0.33333333  0.00000000  0.00000000       0.019
   0.50000000  0.00000000  0.00000000       0.019
  -0.33333333  0.00000000  0.00000000       0.019
  -0.16666667  0.00000000  0.00000000       0.019
   0.16666667  0.16666667  0.00000000       0.028
   0.33333333  0.16666667  0.00000000       0.056
   0.50000000  0.16666667  0.00000000       0.056
  -0.33333333  0.16666667  0.00000000       0.056
  -0.16666667  0.16666667  0.00000000       0.056
   0.33333333  0.33333333  0.00000000       0.028
   0.50000000  0.33333333  0.00000000       0.056
  -0.33333333  0.33333333  0.00000000       0.056
  -0.16666667  0.33333333  0.00000000       0.056
   0.50000000  0.50000000  0.00000000       0.014
  -0.33333333  0.50000000  0.00000000       0.056
  -0.16666667  0.50000000  0.00000000       0.056
  -0.16666667 -0.33333333  0.00000000       0.056
   0.50000000  0.33333333  0.16666667       0.111
  -0.33333333  0.33333333  0.16666667       0.111
  -0.33333333  0.50000000  0.16666667       0.056
   0.00000000  0.00000000  0.00000000       0.000
   0.02631579  0.00000000  0.02631579       0.000
   0.05263158  0.00000000  0.05263158       0.000
   0.07894737  0.00000000  0.07894737       0.000
   0.10526316  0.00000000  0.10526316       0.000
   0.13157895  0.00000000  0.13157895       0.000
   0.15789474  0.00000000  0.15789474       0.000
   0.18421053  0.00000000  0.18421053       0.000
   0.21052632  0.00000000  0.21052632       0.000
   0.23684211  0.00000000  0.23684211       0.000
   0.26315789  0.00000000  0.26315789       0.000
   0.28947368  0.00000000  0.28947368       0.000
   0.31578947  0.00000000  0.31578947       0.000
   0.34210526  0.00000000  0.34210526       0.000
   0.36842105  0.00000000  0.36842105       0.000
   0.39473684  0.00000000  0.39473684       0.000
   0.42105263  0.00000000  0.42105263       0.000
   0.44736842  0.00000000  0.44736842       0.000
   0.47368421  0.00000000  0.47368421       0.000
   0.50000000  0.00000000  0.50000000       0.000
   0.50000000  0.00000000  0.50000000       0.000
   0.50000000  0.01315789  0.51315789       0.000
   0.50000000  0.02631579  0.52631579       0.000
   0.50000000  0.03947368  0.53947368       0.000
   0.50000000  0.05263158  0.55263158       0.000
   0.50000000  0.06578947  0.56578947       0.000
   0.50000000  0.07894737  0.57894737       0.000
   0.50000000  0.09210526  0.59210526       0.000
   0.50000000  0.10526316  0.60526316       0.000
   0.50000000  0.11842105  0.61842105       0.000
   0.50000000  0.13157895  0.63157895       0.000
   0.50000000  0.14473684  0.64473684       0.000
   0.50000000  0.15789474  0.65789474       0.000
   0.50000000  0.17105263  0.67105263       0.000
   0.50000000  0.18421053  0.68421053       0.000
   0.50000000  0.19736842  0.69736842       0.000
   0.50000000  0.21052632  0.71052632       0.000
   0.50000000  0.22368421  0.72368421       0.000
   0.50000000  0.23684211  0.73684211       0.000
   0.50000000  0.25000000  0.75000000       0.000
   0.50000000  0.25000000  0.75000000       0.000
   0.50000000  0.26315789  0.73684211       0.000
   0.50000000  0.27631579  0.72368421       0.000
   0.50000000  0.28947368  0.71052632       0.000
   0.50000000  0.30263158  0.69736842       0.000
   0.50000000  0.31578947  0.68421053       0.000
   0.50000000  0.32894737  0.67105263       0.000
   0.50000000  0.34210526  0.65789474       0.000
   0.50000000  0.35526316  0.64473684       0.000
   0.50000000  0.36842105  0.63157895       0.000
   0.50000000  0.38157895  0.61842105       0.000
   0.50000000  0.39473684  0.60526316       0.000
   0.50000000  0.40789474  0.59210526       0.000
   0.50000000  0.42105263  0.57894737       0.000
   0.50000000  0.43421053  0.56578947       0.000
   0.50000000  0.44736842  0.55263158       0.000
   0.50000000  0.46052632  0.53947368       0.000
   0.50000000  0.47368421  0.52631579       0.000
   0.50000000  0.48684211  0.51315789       0.000
   0.50000000  0.50000000  0.50000000       0.000
   0.50000000  0.50000000  0.50000000       0.000
   0.47368421  0.47368421  0.47368421       0.000
   0.44736842  0.44736842  0.44736842       0.000
   0.42105263  0.42105263  0.42105263       0.000
   0.39473684  0.39473684  0.39473684       0.000
   0.36842105  0.36842105  0.36842105       0.000
   0.34210526  0.34210526  0.34210526       0.000
   0.31578947  0.31578947  0.31578947       0.000
   0.28947368  0.28947368  0.28947368       0.000
   0.26315789  0.26315789  0.26315789       0.000
   0.23684211  0.23684211  0.23684211       0.000
   0.21052632  0.21052632  0.21052632       0.000
   0.18421053  0.18421053  0.18421053       0.000
   0.15789474  0.15789474  0.15789474       0.000
   0.13157895  0.13157895  0.13157895       0.000
   0.10526316  0.10526316  0.10526316       0.000
   0.07894737  0.07894737  0.07894737       0.000
   0.05263158  0.05263158  0.05263158       0.000
   0.02631579  0.02631579  0.02631579       0.000
   0.00000000  0.00000000  0.00000000       0.000
   0.00000000  0.00000000  0.00000000       0.000
   0.01973684  0.01973684  0.03947368       0.000
   0.03947368  0.03947368  0.07894737       0.000
   0.05921053  0.05921053  0.11842105       0.000
   0.07894737  0.07894737  0.15789474       0.000
   0.09868421  0.09868421  0.19736842       0.000
   0.11842105  0.11842105  0.23684211       0.000
   0.13815789  0.13815789  0.27631579       0.000
   0.15789474  0.15789474  0.31578947       0.000
   0.17763158  0.17763158  0.35526316       0.000
   0.19736842  0.19736842  0.39473684       0.000
   0.21710526  0.21710526  0.43421053       0.000
   0.23684211  0.23684211  0.47368421       0.000
   0.25657895  0.25657895  0.51315789       0.000
   0.27631579  0.27631579  0.55263158       0.000
   0.29605263  0.29605263  0.59210526       0.000
   0.31578947  0.31578947  0.63157895       0.000
   0.33552632  0.33552632  0.67105263       0.000
   0.35526316  0.35526316  0.71052632       0.000
   0.37500000  0.37500000  0.75000000       0.000
 
 position of ions in fractional coordinates (direct lattice) 
   0.00000000  0.00000000  0.00000000
   0.25000000  0.25000000  0.25000000
 
 position of ions in cartesian coordinates  (Angst):
   0.00000000  0.00000000  0.00000000
   1.51460000  1.51460000  1.51460000
 
 Euler angles ALPHA=     0.0000000  BETA=     0.0000000

 transformation matrix from SAXIS to cartesian coordinates
 ---------------------------------------------------------
     1.0000000 m_x     0.0000000 m_y     0.0000000 m_z
     0.0000000 m_x     1.0000000 m_y     0.0000000 m_z
     0.0000000 m_x     0.0000000 m_y     1.0000000 m_z

 transformation matrix from cartesian coordinates to SAXIS
 ---------------------------------------------------------
     1.0000000 m_x     0.0000000 m_y     0.0000000 m_z
     0.0000000 m_x     1.0000000 m_y     0.0000000 m_z
     0.0000000 m_x     0.0000000 m_y     1.0000000 m_z




--------------------------------------------------------------------------------------------------------


 k-point  1 :   0.0000 0.0000 0.0000  plane waves:    1290
 k-point  2 :   0.1667 0.0000 0.0000  plane waves:    1298
 k-point  3 :   0.3333 0.0000 0.0000  plane waves:    1292
 k-point  4 :   0.5000 0.0000 0.0000  plane waves:    1304
 k-point  5 :  -0.3333 0.0000 0.0000  plane waves:    1292
 k-point  6 :  -0.1667 0.0000 0.0000  plane waves:    1298
 k-point  7 :   0.1667 0.1667 0.0000  plane waves:    1306
 k-point  8 :   0.3333 0.1667 0.0000  plane waves:    1300
 k-point  9 :   0.5000 0.1667 0.0000  plane waves:    1324
 k-point 10 :  -0.3333 0.1667 0.0000  plane waves:    1318
 k-point 11 :  -0.1667 0.1667 0.0000  plane waves:    1288
 k-point 12 :   0.3333 0.3333 0.0000  plane waves:    1288
 k-point 13 :   0.5000 0.3333 0.0000  plane waves:    1320
 k-point 14 :  -0.3333 0.3333 0.0000  plane waves:    1316
 k-point 15 :  -0.1667 0.3333 0.0000  plane waves:    1318
 k-point 16 :   0.5000 0.5000 0.0000  plane waves:    1304
 k-point 17 :  -0.3333 0.5000 0.0000  plane waves:    1320
 k-point 18 :  -0.1667 0.5000 0.0000  plane waves:    1324
 k-point 19 :  -0.1667-0.3333 0.0000  plane waves:    1300
 k-point 20 :   0.5000 0.3333 0.1667  plane waves:    1312
 k-point 21 :  -0.3333 0.3333 0.1667  plane waves:    1320
 k-point 22 :  -0.3333 0.5000 0.1667  plane waves:    1324
 k-point 23 :   0.0000 0.0000 0.0000  plane waves:    1290
 k-point 24 :   0.0263 0.0000 0.0263  plane waves:    1290
 k-point 25 :   0.0526 0.0000 0.0526  plane waves:    1274
 k-point 26 :   0.0789 0.0000 0.0789  plane waves:    1290
 k-point 27 :   0.1053 0.0000 0.1053  plane waves:    1314
 k-point 28 :   0.1316 0.0000 0.1316  plane waves:    1330
 k-point 29 :   0.1579 0.0000 0.1579  plane waves:    1314
 k-point 30 :   0.1842 0.0000 0.1842  plane waves:    1306
 k-point 31 :   0.2105 0.0000 0.2105  plane waves:    1298
 k-point 32 :   0.2368 0.0000 0.2368  plane waves:    1298
 k-point 33 :   0.2632 0.0000 0.2632  plane waves:    1298
 k-point 34 :   0.2895 0.0000 0.2895  plane waves:    1304
 k-point 35 :   0.3158 0.0000 0.3158  plane waves:    1288
 k-point 36 :   0.3421 0.0000 0.3421  plane waves:    1288
 k-point 37 :   0.3684 0.0000 0.3684  plane waves:    1304
 k-point 38 :   0.3947 0.0000 0.3947  plane waves:    1320
 k-point 39 :   0.4211 0.0000 0.4211  plane waves:    1320
 k-point 40 :   0.4474 0.0000 0.4474  plane waves:    1320
 k-point 41 :   0.4737 0.0000 0.4737  plane waves:    1312
 k-point 42 :   0.5000 0.0000 0.5000  plane waves:    1304
 k-point 43 :   0.5000 0.0000 0.5000  plane waves:    1304
 k-point 44 :   0.5000 0.0132 0.5132  plane waves:    1292
 k-point 45 :   0.5000 0.0263 0.5263  plane waves:    1292
 k-point 46 :   0.5000 0.0395 0.5395  plane waves:    1304
 k-point 47 :   0.5000 0.0526 0.5526  plane waves:    1308
 k-point 48 :   0.5000 0.0658 0.5658  plane waves:    1308
 k-point 49 :   0.5000 0.0789 0.5789  plane waves:    1324
 k-point 50 :   0.5000 0.0921 0.5921  plane waves:    1324
 k-point 51 :   0.5000 0.1053 0.6053  plane waves:    1324
 k-point 52 :   0.5000 0.1184 0.6184  plane waves:    1324
 k-point 53 :   0.5000 0.1316 0.6316  plane waves:    1324
 k-point 54 :   0.5000 0.1447 0.6447  plane waves:    1324
 k-point 55 :   0.5000 0.1579 0.6579  plane waves:    1316
 k-point 56 :   0.5000 0.1711 0.6711  plane waves:    1324
 k-point 57 :   0.5000 0.1842 0.6842  plane waves:    1332
 k-point 58 :   0.5000 0.1974 0.6974  plane waves:    1332
 k-point 59 :   0.5000 0.2105 0.7105  plane waves:    1332
 k-point 60 :   0.5000 0.2237 0.7237  plane waves:    1332
 k-point 61 :   0.5000 0.2368 0.7368  plane waves:    1324
 k-point 62 :   0.5000 0.2500 0.7500  plane waves:    1296
 k-point 63 :   0.5000 0.2500 0.7500  plane waves:    1296
 k-point 64 :   0.5000 0.2632 0.7368  plane waves:    1332
 k-point 65 :   0.5000 0.2763 0.7237  plane waves:    1332
 k-point 66 :   0.5000 0.2895 0.7105  plane waves:    1332
 k-point 67 :   0.5000 0.3026 0.6974  plane waves:    1332
 k-point 68 :   0.5000 0.3158 0.6842  plane waves:    1328
 k-point 69 :   0.5000 0.3289 0.6711  plane waves:    1320
 k-point 70 :   0.5000 0.3421 0.6579  plane waves:    1320
 k-point 71 :   0.5000 0.3553 0.6447  plane waves:    1324
 k-point 72 :   0.5000 0.3684 0.6316  plane waves:    1332
 k-point 73 :   0.5000 0.3816 0.6184  plane waves:    1332
 k-point 74 :   0.5000 0.3947 0.6053  plane waves:    1324
 k-point 75 :   0.5000 0.4079 0.5921  plane waves:    1320
 k-point 76 :   0.5000 0.4211 0.5789  plane waves:    1316
 k-point 77 :   0.5000 0.4342 0.5658  plane waves:    1312
 k-point 78 :   0.5000 0.4474 0.5526  plane waves:    1316
 k-point 79 :   0.5000 0.4605 0.5395  plane waves:    1304
 k-point 80 :   0.5000 0.4737 0.5263  plane waves:    1288
 k-point 81 :   0.5000 0.4868 0.5132  plane waves:    1300
 k-point 82 :   0.5000 0.5000 0.5000  plane waves:    1304
 k-point 83 :   0.5000 0.5000 0.5000  plane waves:    1304
 k-point 84 :   0.4737 0.4737 0.4737  plane waves:    1292
 k-point 85 :   0.4474 0.4474 0.4474  plane waves:    1292
 k-point 86 :   0.4211 0.4211 0.4211  plane waves:    1292
 k-point 87 :   0.3947 0.3947 0.3947  plane waves:    1316
 k-point 88 :   0.3684 0.3684 0.3684  plane waves:    1316
 k-point 89 :   0.3421 0.3421 0.3421  plane waves:    1304
 k-point 90 :   0.3158 0.3158 0.3158  plane waves:    1292
 k-point 91 :   0.2895 0.2895 0.2895  plane waves:    1280
 k-point 92 :   0.2632 0.2632 0.2632  plane waves:    1280
 k-point 93 :   0.2368 0.2368 0.2368  plane waves:    1292
 k-point 94 :   0.2105 0.2105 0.2105  plane waves:    1298
 k-point 95 :   0.1842 0.1842 0.1842  plane waves:    1292
 k-point 96 :   0.1579 0.1579 0.1579  plane waves:    1298
 k-point 97 :   0.1316 0.1316 0.1316  plane waves:    1298
 k-point 98 :   0.1053 0.1053 0.1053  plane waves:    1298
 k-point 99 :   0.0789 0.0789 0.0789  plane waves:    1280
 k-point ** :   0.0526 0.0526 0.0526  plane waves:    1278
 k-point ** :   0.0263 0.0263 0.0263  plane waves:    1290
 k-point ** :   0.0000 0.0000 0.0000  plane waves:    1290
 k-point ** :   0.0000 0.0000 0.0000  plane waves:    1290
 k-point ** :   0.0197 0.0197 0.0395  plane waves:    1290
 k-point ** :   0.0395 0.0395 0.0789  plane waves:    1288
 k-point ** :   0.0592 0.0592 0.1184  plane waves:    1288
 k-point ** :   0.0789 0.0789 0.1579  plane waves:    1300
 k-point ** :   0.0987 0.0987 0.1974  plane waves:    1308
 k-point ** :   0.1184 0.1184 0.2368  plane waves:    1308
 k-point ** :   0.1382 0.1382 0.2763  plane waves:    1304
 k-point ** :   0.1579 0.1579 0.3158  plane waves:    1288
 k-point ** :   0.1776 0.1776 0.3553  plane waves:    1288
 k-point ** :   0.1974 0.1974 0.3947  plane waves:    1296
 k-point ** :   0.2171 0.2171 0.4342  plane waves:    1300
 k-point ** :   0.2368 0.2368 0.4737  plane waves:    1316
 k-point ** :   0.2566 0.2566 0.5132  plane waves:    1312
 k-point ** :   0.2763 0.2763 0.5526  plane waves:    1324
 k-point ** :   0.2961 0.2961 0.5921  plane waves:    1332
 k-point ** :   0.3158 0.3158 0.6316  plane waves:    1332
 k-point ** :   0.3355 0.3355 0.6711  plane waves:    1332
 k-point ** :   0.3553 0.3553 0.7105  plane waves:    1340
 k-point ** :   0.3750 0.3750 0.7500  plane waves:    1340

 maximum and minimum number of plane-waves per node :      1340     1274

 maximum number of plane-waves:      1340
 maximum index in each direction: 
   IXMAX=    6   IYMAX=    6   IZMAX=    6
   IXMIN=   -6   IYMIN=   -6   IZMIN=   -6


 serial   3D FFT for wavefunctions
 parallel 3D FFT for charge:
    minimum data exchange during FFTs selected (reduces bandwidth)


 FFT grid for exact exchange (Hartree Fock) 
  NGX = 14; NGY = 14; NGZ = 14

 
 Radii for the augmentation spheres in the non-local exchange
 for species   1 augmentation radius   2.003 (default was   1.484)
       energy cutoff for augmentation   1200.0
 for species   2 augmentation radius   1.434 (default was   1.062)
       energy cutoff for augmentation   1200.0
 Maximum index for augmentation-charges in exchange         1601
  SETUP_FOCK is finished

 total amount of memory used by VASP MPI-rank0    57468. kBytes
=======================================================================

   base      :      30000. kBytes
   nonl-proj :      17074. kBytes
   fftplans  :        138. kBytes
   grid      :       1057. kBytes
   one-center:         64. kBytes
   HF        :         67. kBytes
   nonlr-proj:        542. kBytes
   wavefun   :       8526. kBytes
 
     INWAV:  cpu time    3.4800: real time    3.4812
 initial charge density was supplied:
 number of electron       8.0000011 magnetization       0.0000000      0.0000000     -0.0000000
 keeping initial charge density in first step


--------------------------------------------------------------------------------------------------------


 Maximum index for augmentation-charges          559 (set IRDMAX)


--------------------------------------------------------------------------------------------------------


 First call to EWALD:  gamma=   0.464
 Maximum number of real-space cells 3x 3x 3
 Maximum number of reciprocal cells 3x 3x 3

    FEWALD:  cpu time    0.0015: real time    0.0015


--------------------------------------- Iteration      1(   1)  ---------------------------------------


    POTLOK:  cpu time    0.0209: real time    0.0226
    SETDIJ:  cpu time    0.2039: real time    0.2042
    TRIAL :  cpu time  337.3790: real time  337.5324
    CORREC:  cpu time    0.0012: real time    0.0012
    --------------------------------------------
      LOOP:  cpu time  337.6185: real time  337.7765

 eigenvalue-minimisations  :     0
 total energy-change (2. order) :-0.9174657E+01  (-0.4270607E-01)
 number of electron       8.0000011 magnetization       0.0000000      0.0000000     -0.0000000
 augmentation part        8.0000011 magnetization       0.0000000      0.0000000     -0.0000000

 Free energy of the ion-electron system (eV)
  ---------------------------------------------------
  alpha Z        PSCENC =         6.67624893
  Ewald energy   TEWEN  =      -213.84743004
  -Hartree energ DENC   =       -25.61076605
  -exchange      EXHF   =        10.51980990
  -V(xc)+E(xc)   XCENC  =       -54.03876417
  PAW double counting   =       522.72460095     -458.15549704
  entropy T*S    EENTRO =        -0.00013060
  eigenvalues    EBANDS =       -18.99126077
  atomic energy  EATOM  =       221.54853201
  ---------------------------------------------------
  free energy    TOTEN  =        -9.17465690 eV

  energy without entropy =       -9.17452630  energy(sigma->0) =       -9.17461337
  exchange ACFDT corr.  =        -0.00006172  see jH, gK, PRB 81, 115126


--------------------------------------------------------------------------------------------------------




--------------------------------------- Iteration      1(   2)  ---------------------------------------


    TRIAL :  cpu time  335.0945: real time  335.2560
    CORREC:  cpu time    0.0009: real time    0.0009
    --------------------------------------------
      LOOP:  cpu time  335.0960: real time  335.2650

 eigenvalue-minimisations  :     0
 total energy-change (2. order) :-0.3598957E-01  (-0.3214236E-01)
 number of electron       8.0000011 magnetization       0.0000000      0.0000000     -0.0000000
 augmentation part        8.0000011 magnetization       0.0000000      0.0000000     -0.0000000

 Free energy of the ion-electron system (eV)
  ---------------------------------------------------
  alpha Z        PSCENC =         6.67624893
  Ewald energy   TEWEN  =      -213.84743004
  -Hartree energ DENC   =       -25.61076605
  -exchange      EXHF   =        10.52852362
  -V(xc)+E(xc)   XCENC  =       -54.03876417
  PAW double counting   =       522.72460095     -458.15549704
  entropy T*S    EENTRO =        -0.00010137
  eigenvalues    EBANDS =       -19.03596406
  atomic energy  EATOM  =       221.54853201
  ---------------------------------------------------
  free energy    TOTEN  =        -9.21064647 eV

  energy without entropy =       -9.21054510  energy(sigma->0) =       -9.21061268
  exchange ACFDT corr.  =        -0.00006813  see jH, gK, PRB 81, 115126


--------------------------------------------------------------------------------------------------------




--------------------------------------- Iteration      1(   3)  ---------------------------------------


    TRIAL :  cpu time  333.9362: real time  334.0964
    CORREC:  cpu time    0.0009: real time    0.0008
    --------------------------------------------
      LOOP:  cpu time  333.9383: real time  334.1046

 eigenvalue-minimisations  :     0
 total energy-change (2. order) :-0.2475992E-01  (-0.1437010E-01)
 number of electron       8.0000011 magnetization       0.0000000      0.0000000     -0.0000000
 augmentation part        8.0000011 magnetization       0.0000000      0.0000000     -0.0000000

 Free energy of the ion-electron system (eV)
  ---------------------------------------------------
  alpha Z        PSCENC =         6.67624893
  Ewald energy   TEWEN  =      -213.84743004
  -Hartree energ DENC   =       -25.61076605
  -exchange      EXHF   =        10.53926265
  -V(xc)+E(xc)   XCENC  =       -54.03876417
  PAW double counting   =       522.72460095     -458.15549704
  entropy T*S    EENTRO =        -0.00004266
  eigenvalues    EBANDS =       -19.07149224
  atomic energy  EATOM  =       221.54853201
  ---------------------------------------------------
  free energy    TOTEN  =        -9.23540639 eV

  energy without entropy =       -9.23536373  energy(sigma->0) =       -9.23539217
  exchange ACFDT corr.  =        -0.00006434  see jH, gK, PRB 81, 115126


--------------------------------------------------------------------------------------------------------




--------------------------------------- Iteration      1(   4)  ---------------------------------------


    TRIAL :  cpu time  335.2628: real time  335.4299
    CORREC:  cpu time    0.0008: real time    0.0008
    --------------------------------------------
      LOOP:  cpu time  335.2644: real time  335.4384

 eigenvalue-minimisations  :     0
 total energy-change (2. order) :-0.1409181E-01  (-0.8211757E-02)
 number of electron       8.0000011 magnetization       0.0000000      0.0000000     -0.0000000
 augmentation part        8.0000011 magnetization       0.0000000      0.0000000     -0.0000000

 Free energy of the ion-electron system (eV)
  ---------------------------------------------------
  alpha Z        PSCENC =         6.67624893
  Ewald energy   TEWEN  =      -213.84743004
  -Hartree energ DENC   =       -25.61076605
  -exchange      EXHF   =        10.55753712
  -V(xc)+E(xc)   XCENC  =       -54.03876417
  PAW double counting   =       522.72460095     -458.15549704
  entropy T*S    EENTRO =         0.00003018
  eigenvalues    EBANDS =       -19.10391723
  atomic energy  EATOM  =       221.54853201
  ---------------------------------------------------
  free energy    TOTEN  =        -9.24949820 eV

  energy without entropy =       -9.24952838  energy(sigma->0) =       -9.24950826
  exchange ACFDT corr.  =        -0.00003307  see jH, gK, PRB 81, 115126


--------------------------------------------------------------------------------------------------------




--------------------------------------- Iteration      1(   5)  ---------------------------------------


    TRIAL :  cpu time  333.7898: real time  333.9476
    CORREC:  cpu time    0.0008: real time    0.0008
    --------------------------------------------
      LOOP:  cpu time  333.7913: real time  333.9556

 eigenvalue-minimisations  :     0
 total energy-change (2. order) :-0.5057596E-02  (-0.2835905E-02)
 number of electron       8.0000011 magnetization       0.0000000      0.0000000     -0.0000000
 augmentation part        8.0000011 magnetization       0.0000000      0.0000000     -0.0000000

 Free energy of the ion-electron system (eV)
  ---------------------------------------------------
  alpha Z        PSCENC =         6.67624893
  Ewald energy   TEWEN  =      -213.84743004
  -Hartree energ DENC   =       -25.61076605
  -exchange      EXHF   =        10.56811678
  -V(xc)+E(xc)   XCENC  =       -54.03876417
  PAW double counting   =       522.72460095     -458.15549704
  entropy T*S    EENTRO =         0.00002684
  eigenvalues    EBANDS =       -19.11962733
  atomic energy  EATOM  =       221.54853201
  ---------------------------------------------------
  free energy    TOTEN  =        -9.25455580 eV

  energy without entropy =       -9.25458264  energy(sigma->0) =       -9.25456474
  exchange ACFDT corr.  =         0.00000050  see jH, gK, PRB 81, 115126


--------------------------------------------------------------------------------------------------------




--------------------------------------- Iteration      1(   6)  ---------------------------------------


    TRIAL :  cpu time  333.8557: real time  334.0127
    CORREC:  cpu time    0.0008: real time    0.0008
    --------------------------------------------
      LOOP:  cpu time  333.8574: real time  334.0208

 eigenvalue-minimisations  :     0
 total energy-change (2. order) :-0.2366893E-02  (-0.1596109E-02)
 number of electron       8.0000011 magnetization       0.0000000      0.0000000     -0.0000000
 augmentation part        8.0000011 magnetization       0.0000000      0.0000000     -0.0000000

 Free energy of the ion-electron system (eV)
  ---------------------------------------------------
  alpha Z        PSCENC =         6.67624893
  Ewald energy   TEWEN  =      -213.84743004
  -Hartree energ DENC   =       -25.61076605
  -exchange      EXHF   =        10.57570310
  -V(xc)+E(xc)   XCENC  =       -54.03876417
  PAW double counting   =       522.72460095     -458.15549704
  entropy T*S    EENTRO =         0.00001342
  eigenvalues    EBANDS =       -19.12957720
  atomic energy  EATOM  =       221.54853201
  ---------------------------------------------------
  free energy    TOTEN  =        -9.25692269 eV

  energy without entropy =       -9.25693611  energy(sigma->0) =       -9.25692716
  exchange ACFDT corr.  =         0.00000000  see jH, gK, PRB 81, 115126


--------------------------------------------------------------------------------------------------------




--------------------------------------- Iteration      1(   7)  ---------------------------------------


    TRIAL :  cpu time  332.8646: real time  333.0316
    CORREC:  cpu time    0.0008: real time    0.0008
    --------------------------------------------
      LOOP:  cpu time  332.8667: real time  333.0413

 eigenvalue-minimisations  :     0
 total energy-change (2. order) :-0.1351942E-02  (-0.8618778E-03)
 number of electron       8.0000011 magnetization       0.0000000      0.0000000     -0.0000000
 augmentation part        8.0000011 magnetization       0.0000000      0.0000000     -0.0000000

 Free energy of the ion-electron system (eV)
  ---------------------------------------------------
  alpha Z        PSCENC =         6.67624893
  Ewald energy   TEWEN  =      -213.84743004
  -Hartree energ DENC   =       -25.61076605
  -exchange      EXHF   =        10.58152123
  -V(xc)+E(xc)   XCENC  =       -54.03876417
  PAW double counting   =       522.72460095     -458.15549704
  entropy T*S    EENTRO =         0.00002684
  eigenvalues    EBANDS =       -19.13673386
  atomic energy  EATOM  =       221.54853201
  ---------------------------------------------------
  free energy    TOTEN  =        -9.25827463 eV

  energy without entropy =       -9.25830147  energy(sigma->0) =       -9.25828358
  exchange ACFDT corr.  =         0.00000000  see jH, gK, PRB 81, 115126


--------------------------------------------------------------------------------------------------------




--------------------------------------- Iteration      1(   8)  ---------------------------------------


[...]
 total charge-density along one line
 
 soft charge-density along one line, spin component           2
         0         1         2         3         4         5         6         7         8         9
 total charge-density along one line
 
 soft charge-density along one line, spin component           3
         0         1         2         3         4         5         6         7         8         9
 total charge-density along one line
 
 soft charge-density along one line, spin component           4
         0         1         2         3         4         5         6         7         8         9
 total charge-density along one line
 
 pseudopotential strength for first ion, spin component:           1
 19.547   0.000  23.388   0.000   0.000  -0.000   0.000  -0.000   0.000   0.000   0.000  -0.000   0.000  -0.000   0.000   0.000
 23.388  -0.000  27.994  -0.000   0.000  -0.000   0.000  -0.000   0.000   0.000   0.000  -0.000   0.000  -0.000   0.000   0.000
  0.000   0.000   0.000   0.000   3.575   0.000  -0.000  -0.000  -0.000   0.093   6.159   0.000  -0.000  -0.000  -0.000   0.164
  0.000   0.000   0.000   0.000  -0.000   0.000   3.575   0.000  -0.000   0.000  -0.000   0.000   6.159   0.000  -0.000   0.000
  0.000  -0.000   0.000  -0.000  -0.000  -0.093  -0.000  -0.000   3.575   0.000  -0.000  -0.164  -0.000  -0.000   6.159   0.000
  0.000   0.000   0.000   0.000   6.159  -0.000  -0.000  -0.000  -0.000   0.164  10.657  -0.000  -0.000  -0.000  -0.000   0.290
  0.000   0.000   0.000   0.000  -0.000   0.000   6.159  -0.000  -0.000   0.000  -0.000   0.000  10.657  -0.000  -0.000   0.000
  0.000  -0.000   0.000  -0.000  -0.000  -0.164  -0.000  -0.000   6.159  -0.000  -0.000  -0.290  -0.000  -0.000  10.657  -0.000
 -0.000   0.000  -0.000  -0.000  -0.000  -0.000   0.003   0.000  -0.000   0.000  -0.000  -0.000   0.005   0.000  -0.000   0.000
 -0.000   0.000  -0.000   0.000  -0.000   0.000  -0.000   0.000   0.003   0.000  -0.000   0.000  -0.000   0.000   0.005   0.000
 -0.000  -0.000  -0.000  -0.000  -0.000  -0.000   0.000   0.000  -0.000   0.000  -0.000  -0.000   0.000   0.000  -0.000   0.000
 -0.000  -0.000  -0.000  -0.000   0.003   0.000  -0.000  -0.000   0.000   0.000   0.005   0.000  -0.000  -0.000   0.000   0.000
 -0.000   0.000  -0.000   0.000  -0.000  -0.000   0.000   0.000   0.000  -0.000  -0.000  -0.000   0.000   0.000   0.000  -0.000
 pseudopotential strength for first ion, spin component:           2
 -0.000  -0.000  -0.000  -0.000   0.000  -0.000   0.000  -0.000  -0.000  -0.000   0.000  -0.000   0.000  -0.000  -0.000  -0.000
 -0.000  -0.000  -0.000  -0.000   0.000  -0.000   0.000  -0.000  -0.000  -0.000   0.000  -0.000   0.000  -0.000  -0.000  -0.000
  0.000  -0.000   0.000  -0.000   0.000   0.000  -0.000  -0.093  -0.000  -0.000   0.000   0.000  -0.000  -0.164  -0.000  -0.000
  0.000  -0.000   0.000  -0.000  -0.000   0.093  -0.000  -0.000  -0.093  -0.000  -0.000   0.164  -0.000  -0.000  -0.164  -0.000
 -0.000   0.000  -0.000   0.000  -0.000  -0.000   0.093  -0.000  -0.000   0.000  -0.000  -0.000   0.164  -0.000  -0.000   0.000
  0.000  -0.000   0.000  -0.000   0.000   0.000  -0.000  -0.164  -0.000  -0.000  -0.000   0.000  -0.000  -0.290  -0.000  -0.000
  0.000  -0.000   0.000  -0.000  -0.000   0.164  -0.000  -0.000  -0.164  -0.000  -0.000   0.290  -0.000  -0.000  -0.290  -0.000
 -0.000   0.000  -0.000   0.000  -0.000  -0.000   0.164  -0.000  -0.000   0.000  -0.000  -0.000   0.290  -0.000  -0.000   0.000
 -0.000  -0.000  -0.000  -0.000   0.000  -0.000   0.000  -0.000   0.000   0.000   0.000  -0.000   0.000  -0.000   0.000   0.000
 -0.000  -0.000  -0.000  -0.000  -0.000  -0.000   0.000  -0.000   0.000  -0.000  -0.000  -0.000   0.000  -0.000   0.000  -0.000
  0.000  -0.000   0.000  -0.000   0.000  -0.000   0.000  -0.000  -0.000   0.000   0.000  -0.000   0.000  -0.000  -0.000   0.000
  0.000  -0.000   0.000  -0.000   0.000  -0.000  -0.000   0.000   0.000  -0.000   0.000  -0.000  -0.000   0.000   0.000  -0.000
 -0.000   0.000  -0.000   0.000  -0.000   0.000   0.000  -0.000  -0.000   0.000  -0.000   0.000   0.000  -0.000  -0.000   0.000
 pseudopotential strength for first ion, spin component:           3
 -0.000   0.000  -0.000   0.000   0.000   0.000   0.000   0.000  -0.000  -0.000   0.000   0.000   0.000   0.000  -0.000  -0.000
 -0.000   0.000  -0.000   0.000   0.000   0.000   0.000   0.000  -0.000  -0.000   0.000   0.000   0.000   0.000  -0.000  -0.000
  0.000   0.000   0.000   0.000   0.000  -0.000  -0.000  -0.093  -0.000   0.000   0.000  -0.000  -0.000  -0.164  -0.000   0.000
  0.000   0.000   0.000   0.000  -0.000   0.093  -0.000   0.000   0.093   0.000  -0.000   0.164  -0.000   0.000   0.164   0.000
 -0.000   0.000  -0.000   0.000  -0.000   0.000  -0.093   0.000  -0.000  -0.000  -0.000   0.000  -0.164   0.000  -0.000  -0.000
  0.000   0.000   0.000   0.000   0.000  -0.000  -0.000  -0.164  -0.000   0.000  -0.000  -0.000  -0.000  -0.290  -0.000   0.000
  0.000   0.000   0.000   0.000  -0.000   0.164  -0.000   0.000   0.164   0.000  -0.000   0.290  -0.000   0.000   0.290   0.000
 -0.000   0.000  -0.000   0.000  -0.000   0.000  -0.164   0.000  -0.000  -0.000  -0.000   0.000  -0.290   0.000  -0.000  -0.000
 -0.000   0.000  -0.000   0.000   0.000  -0.000   0.000   0.000   0.000  -0.000   0.000  -0.000   0.000   0.000   0.000  -0.000
 -0.000   0.000  -0.000   0.000  -0.000   0.000   0.000   0.000   0.000   0.000  -0.000   0.000   0.000   0.000   0.000   0.000
  0.000   0.000   0.000   0.000   0.000   0.000   0.000   0.000  -0.000   0.000   0.000   0.000   0.000   0.000  -0.000   0.000
  0.000   0.000   0.000   0.000   0.000   0.000  -0.000   0.000   0.000   0.000   0.000   0.000  -0.000   0.000   0.000   0.000
 -0.000  -0.000  -0.000  -0.000  -0.000  -0.000   0.000   0.000  -0.000   0.000  -0.000  -0.000   0.000   0.000  -0.000   0.000
 pseudopotential strength for first ion, spin component:           4
 19.547   0.000  23.388   0.000   0.000  -0.000   0.000  -0.000   0.000   0.000   0.000  -0.000   0.000  -0.000   0.000   0.000
 23.388  -0.000  27.994  -0.000   0.000  -0.000   0.000  -0.000   0.000   0.000   0.000  -0.000   0.000  -0.000   0.000   0.000
  0.000   0.000   0.000   0.000   3.575   0.000  -0.000  -0.000  -0.000  -0.093   6.159   0.000  -0.000  -0.000  -0.000  -0.164
  0.000   0.000   0.000   0.000  -0.000   0.000   3.575   0.000  -0.000   0.000  -0.000   0.000   6.159   0.000  -0.000   0.000
  0.000  -0.000   0.000  -0.000  -0.000   0.093  -0.000  -0.000   3.575   0.000  -0.000   0.164  -0.000  -0.000   6.159   0.000
  0.000   0.000   0.000   0.000   6.159  -0.000  -0.000  -0.000  -0.000  -0.164  10.657  -0.000  -0.000  -0.000  -0.000  -0.290
  0.000   0.000   0.000   0.000  -0.000   0.000   6.159  -0.000  -0.000   0.000  -0.000   0.000  10.657  -0.000  -0.000   0.000
  0.000  -0.000   0.000  -0.000  -0.000   0.164  -0.000  -0.000   6.159  -0.000  -0.000   0.290  -0.000  -0.000  10.657  -0.000
 -0.000   0.000  -0.000   0.000  -0.000  -0.000   0.003   0.000  -0.000   0.000  -0.000  -0.000   0.005   0.000  -0.000   0.000
 -0.000  -0.000  -0.000  -0.000   0.000   0.000  -0.000   0.000   0.003   0.000   0.000   0.000  -0.000   0.000   0.005   0.000
  0.000  -0.000   0.000  -0.000  -0.000  -0.000   0.000   0.000  -0.000   0.000  -0.000  -0.000   0.000   0.000  -0.000   0.000
 -0.000  -0.000  -0.000  -0.000   0.003   0.000  -0.000  -0.000  -0.000   0.000   0.005   0.000  -0.000  -0.000  -0.000   0.000
  0.000  -0.000   0.000  -0.000  -0.000  -0.000  -0.000   0.000   0.000  -0.000  -0.000  -0.000  -0.000   0.000   0.000  -0.000
 total augmentation occupancy for first ion, spin component:           1
  2.000   0.000   0.000   0.000   0.000   0.000   0.000   0.000   0.000   0.000   0.000   0.000   0.000
  0.000   0.000   0.000   0.000   0.000   0.000   0.000   0.000   0.000   0.000   0.000   0.000   0.000
  0.000   0.000   0.333   0.000   0.000   0.000   0.000   0.000   0.000   0.000   0.000   0.000   0.000
  0.000   0.000   0.000   0.333   0.000   0.000   0.000   0.000   0.000   0.000   0.000   0.000   0.000
  0.000   0.000   0.000   0.000   0.333   0.000   0.000   0.000   0.000   0.000   0.000   0.000   0.000
  0.000   0.000   0.000   0.000   0.000   0.000   0.000   0.000   0.000   0.000   0.000   0.000   0.000
  0.000   0.000   0.000   0.000   0.000   0.000   0.000   0.000   0.000   0.000   0.000   0.000   0.000
  0.000   0.000   0.000   0.000   0.000   0.000   0.000   0.000   0.000   0.000   0.000   0.000   0.000
  0.000   0.000   0.000   0.000   0.000   0.000   0.000   0.000   0.000   0.000   0.000   0.000   0.000
  0.000   0.000   0.000   0.000   0.000   0.000   0.000   0.000   0.000   0.000   0.000   0.000   0.000
  0.000   0.000   0.000   0.000   0.000   0.000   0.000   0.000   0.000   0.000   0.000   0.000   0.000
  0.000   0.000   0.000   0.000   0.000   0.000   0.000   0.000   0.000   0.000   0.000   0.000   0.000
  0.000   0.000   0.000   0.000   0.000   0.000   0.000   0.000   0.000   0.000   0.000   0.000   0.000
 total augmentation occupancy for first ion, spin component:           2
  0.000   0.000   0.000   0.000   0.000   0.000   0.000   0.000   0.000   0.000   0.000   0.000   0.000
  0.000   0.000   0.000   0.000   0.000   0.000   0.000   0.000   0.000   0.000   0.000   0.000   0.000
  0.000   0.000   0.000   0.000   0.000   0.000   0.000   0.000   0.000   0.000   0.000   0.000   0.000
  0.000   0.000   0.000   0.000   0.000   0.000   0.000   0.000   0.000   0.000   0.000   0.000   0.000
  0.000   0.000   0.000   0.000   0.000   0.000   0.000   0.000   0.000   0.000   0.000   0.000   0.000
  0.000   0.000   0.000   0.000   0.000   0.000   0.000   0.000   0.000   0.000   0.000   0.000   0.000
  0.000   0.000   0.000   0.000   0.000   0.000   0.000   0.000   0.000   0.000   0.000   0.000   0.000
  0.000   0.000   0.000   0.000   0.000   0.000   0.000   0.000   0.000   0.000   0.000   0.000   0.000
  0.000   0.000   0.000   0.000   0.000   0.000   0.000   0.000   0.000   0.000   0.000   0.000   0.000
  0.000   0.000   0.000   0.000   0.000   0.000   0.000   0.000   0.000   0.000   0.000   0.000   0.000
  0.000   0.000   0.000   0.000   0.000   0.000   0.000   0.000   0.000   0.000   0.000   0.000   0.000
  0.000   0.000   0.000   0.000   0.000   0.000   0.000   0.000   0.000   0.000   0.000   0.000   0.000
  0.000   0.000   0.000   0.000   0.000   0.000   0.000   0.000   0.000   0.000   0.000   0.000   0.000
 total augmentation occupancy for first ion, spin component:           3
  0.000   0.000   0.000   0.000   0.000   0.000   0.000   0.000   0.000   0.000   0.000   0.000   0.000
  0.000   0.000   0.000   0.000   0.000   0.000   0.000   0.000   0.000   0.000   0.000   0.000   0.000
  0.000   0.000   0.000   0.000   0.000   0.000   0.000   0.000   0.000   0.000   0.000   0.000   0.000
  0.000   0.000   0.000   0.000   0.000   0.000   0.000   0.000   0.000   0.000   0.000   0.000   0.000
  0.000   0.000   0.000   0.000   0.000   0.000   0.000   0.000   0.000   0.000   0.000   0.000   0.000
  0.000   0.000   0.000   0.000   0.000   0.000   0.000   0.000   0.000   0.000   0.000   0.000   0.000
  0.000   0.000   0.000   0.000   0.000   0.000   0.000   0.000   0.000   0.000   0.000   0.000   0.000
  0.000   0.000   0.000   0.000   0.000   0.000   0.000   0.000   0.000   0.000   0.000   0.000   0.000
  0.000   0.000   0.000   0.000   0.000   0.000   0.000   0.000   0.000   0.000   0.000   0.000   0.000
  0.000   0.000   0.000   0.000   0.000   0.000   0.000   0.000   0.000   0.000   0.000   0.000   0.000
  0.000   0.000   0.000   0.000   0.000   0.000   0.000   0.000   0.000   0.000   0.000   0.000   0.000
  0.000   0.000   0.000   0.000   0.000   0.000   0.000   0.000   0.000   0.000   0.000   0.000   0.000
  0.000   0.000   0.000   0.000   0.000   0.000   0.000   0.000   0.000   0.000   0.000   0.000   0.000
 total augmentation occupancy for first ion, spin component:           4
  0.000   0.000   0.000   0.000   0.000   0.000   0.000   0.000   0.000   0.000   0.000   0.000   0.000
  0.000   0.000   0.000   0.000   0.000   0.000   0.000   0.000   0.000   0.000   0.000   0.000   0.000
  0.000   0.000   0.000   0.000   0.000   0.000   0.000   0.000   0.000   0.000   0.000   0.000   0.000
  0.000   0.000   0.000   0.000   0.000   0.000   0.000   0.000   0.000   0.000   0.000   0.000   0.000
  0.000   0.000   0.000   0.000   0.000   0.000   0.000   0.000   0.000   0.000   0.000   0.000   0.000
  0.000   0.000   0.000   0.000   0.000   0.000   0.000   0.000   0.000   0.000   0.000   0.000   0.000
  0.000   0.000   0.000   0.000   0.000   0.000   0.000   0.000   0.000   0.000   0.000   0.000   0.000
  0.000   0.000   0.000   0.000   0.000   0.000   0.000   0.000   0.000   0.000   0.000   0.000   0.000
  0.000   0.000   0.000   0.000   0.000   0.000   0.000   0.000   0.000   0.000   0.000   0.000   0.000
  0.000   0.000   0.000   0.000   0.000   0.000   0.000   0.000   0.000   0.000   0.000   0.000   0.000
  0.000   0.000   0.000   0.000   0.000   0.000   0.000   0.000   0.000   0.000   0.000   0.000   0.000
  0.000   0.000   0.000   0.000   0.000   0.000   0.000   0.000   0.000   0.000   0.000   0.000   0.000
  0.000   0.000   0.000   0.000   0.000   0.000   0.000   0.000   0.000   0.000   0.000   0.000   0.000


------------------------ aborting loop because EDIFF is reached ----------------------------------------


    CHARGE:  cpu time    0.1422: real time    0.1426
    FORLOC:  cpu time    0.0002: real time    0.0002
    FORHF :  cpu time  754.8973: real time  755.1875
    FORNL :  cpu time    0.0645: real time    0.0645
    FORCOR:  cpu time    0.2169: real time    0.2175
    FORHAR:  cpu time    0.0020: real time    0.0022
    OFIELD:  cpu time    0.0000: real time    0.0000

 VOLUME and BASIS-vectors are now :
 -----------------------------------------------------------------------------
  energy-cutoff  :      300.00
  volume of cell :       55.59
      direct lattice vectors                 reciprocal lattice vectors
     0.000000000  3.029200000  3.029200000    -0.165060082  0.165060082  0.165060082
     3.029200000  0.000000000  3.029200000     0.165060082 -0.165060082  0.165060082
     3.029200000  3.029200000  0.000000000     0.165060082  0.165060082 -0.165060082

  length of vectors
     4.283935723  4.283935723  4.283935723     0.285892448  0.285892448  0.285892448


 FORCES acting on ions
    electron-ion (+dipol)            ewald-force                    non-local-force                 convergence-correction
 -----------------------------------------------------------------------------------------------
   0.741E-05 -.577E-06 0.313E-05   0.444E-14 0.367E-14 0.481E-14   -.278E-16 0.000E+00 -.278E-16   -.183E-06 0.241E-06 -.106E-06
   0.978E-05 0.889E-05 0.685E-05   -.445E-14 -.376E-14 -.512E-14   -.347E-16 -.555E-16 -.416E-16   -.260E-05 -.203E-05 -.133E-05
 -----------------------------------------------------------------------------------------------
   0.172E-04 0.831E-05 0.997E-05   -.623E-17 -.883E-16 -.308E-15   -.625E-16 -.555E-16 -.694E-16   -.279E-05 -.179E-05 -.143E-05
 
 
 POSITION                                       TOTAL-FORCE (eV/Angst)
 -----------------------------------------------------------------------------------
      0.00000      0.00000      0.00000         0.000000      0.000000      0.000000
      1.51460      1.51460      1.51460        -0.000000     -0.000000     -0.000000
 -----------------------------------------------------------------------------------
    total drift:                                0.000014      0.000007      0.000009


--------------------------------------------------------------------------------------------------------



  FREE ENERGIE OF THE ION-ELECTRON SYSTEM (eV)
  ---------------------------------------------------
  free  energy   TOTEN  =        -9.25958410 eV

  energy  without entropy=       -9.25961094  energy(sigma->0) =       -9.25959305
 


--------------------------------------------------------------------------------------------------------


    POTLOK:  cpu time    0.2112: real time    0.2112


--------------------------------------------------------------------------------------------------------


     LOOP+:  cpu time 4772.9957: real time 4775.2938
    4ORBIT:  cpu time    0.0000: real time    0.0000

 Spin-Orbit-Coupling matrix elements

 Ion:    1  E_soc:     -0.0310432
 l=   1
     0.0000000    -0.0049723    -0.0049723
    -0.0049723     0.0000000    -0.0049723
    -0.0049723    -0.0049723     0.0000000
 l=   2
     0.0000000    -0.0000784     0.0000000    -0.0000784    -0.0001232
    -0.0000784     0.0000000    -0.0000924    -0.0000784    -0.0000308
     0.0000000    -0.0000924     0.0000000    -0.0000924     0.0000000
    -0.0000784    -0.0000784    -0.0000924     0.0000000    -0.0000308
    -0.0001232    -0.0000308     0.0000000    -0.0000308     0.0000000
 l=   3
     0.0000000     0.0000000     0.0000000     0.0000000     0.0000000     0.0000000     0.0000000
     0.0000000     0.0000000     0.0000000     0.0000000     0.0000000     0.0000000     0.0000000
     0.0000000     0.0000000     0.0000000     0.0000000     0.0000000     0.0000000     0.0000000
     0.0000000     0.0000000     0.0000000     0.0000000     0.0000000     0.0000000     0.0000000
     0.0000000     0.0000000     0.0000000     0.0000000     0.0000000     0.0000000     0.0000000
     0.0000000     0.0000000     0.0000000     0.0000000     0.0000000     0.0000000     0.0000000
     0.0000000     0.0000000     0.0000000     0.0000000     0.0000000     0.0000000     0.0000000

 Ion:    2  E_soc:     -0.0243999
 l=   1
     0.0000000    -0.0040669    -0.0040669
    -0.0040669     0.0000000    -0.0040669
    -0.0040669    -0.0040669     0.0000000
 l=   2
     0.0000000    -0.0000005     0.0000000    -0.0000005     0.0000008
    -0.0000005     0.0000000     0.0000006    -0.0000005     0.0000002
     0.0000000     0.0000006     0.0000000     0.0000006     0.0000000
    -0.0000005    -0.0000005     0.0000006     0.0000000     0.0000002
     0.0000008     0.0000002     0.0000000     0.0000002     0.0000000
 l=   3
     0.0000000     0.0000000     0.0000000     0.0000000     0.0000000     0.0000000     0.0000000
     0.0000000     0.0000000     0.0000000     0.0000000     0.0000000     0.0000000     0.0000000
     0.0000000     0.0000000     0.0000000     0.0000000     0.0000000     0.0000000     0.0000000
     0.0000000     0.0000000     0.0000000     0.0000000     0.0000000     0.0000000     0.0000000
     0.0000000     0.0000000     0.0000000     0.0000000     0.0000000     0.0000000     0.0000000
     0.0000000     0.0000000     0.0000000     0.0000000     0.0000000     0.0000000     0.0000000
     0.0000000     0.0000000     0.0000000     0.0000000     0.0000000     0.0000000     0.0000000

 total amount of memory used by VASP MPI-rank0    57636. kBytes
=======================================================================

   base      :      30000. kBytes
   nonl-proj :      17074. kBytes
   fftplans  :        138. kBytes
   grid      :       1057. kBytes
   one-center:         64. kBytes
   HF        :         67. kBytes
   nonlr-proj:        710. kBytes
   wavefun   :       8526. kBytes
 
  
  
 General timing and accounting informations for this job:
 ========================================================
  
                  Total CPU time used (sec):     4841.101
                            User time (sec):     4816.877
                          System time (sec):       24.224
                         Elapsed time (sec):     4843.544
  
                   Maximum memory used (kb):      217832.
                   Average memory used (kb):           0.
  
                          Minor page faults:      2424957
                          Major page faults:            0
                 Voluntary context switches:         1254
