 vasp.5.4.4.18Apr17-6-g9f103f2a35 (build Nov 08 2017 12:56:59) complex          
  
 executed on             LinuxIFC date 2021.06.01  12:05:04
 running on   56 total cores
 distrk:  each k-point on   14 cores,    4 groups
 distr:  one band on NCORES_PER_BAND=   2 cores,    7 groups


--------------------------------------------------------------------------------------------------------


 INCAR:
 POTCAR:    PAW_PBE In 08Apr2002                  
 POTCAR:    PAW_PBE As 22Sep2009                  

 ----------------------------------------------------------------------------- 
|                                                                             |
|           W    W    AA    RRRRR   N    N  II  N    N   GGGG   !!!           |
|           W    W   A  A   R    R  NN   N  II  NN   N  G    G  !!!           |
|           W    W  A    A  R    R  N N  N  II  N N  N  G       !!!           |
|           W WW W  AAAAAA  RRRRR   N  N N  II  N  N N  G  GGG   !            |
|           WW  WW  A    A  R   R   N   NN  II  N   NN  G    G                |
|           W    W  A    A  R    R  N    N  II  N    N   GGGG   !!!           |
|                                                                             |
|      For optimal performance we recommend to set                            |
|        NCORE= 4 - approx SQRT( number of cores)                             |
|      NCORE specifies how many cores store one orbital (NPAR=cpu/NCORE).     |
|      This setting can  greatly improve the performance of VASP for DFT.     |
|      The default,   NCORE=1            might be grossly inefficient         |
|      on modern multi-core architectures or massively parallel machines.     |
|      Do your own testing !!!!                                               |
|      Unfortunately you need to use the default for GW and RPA calculations. |
|      (for HF NCORE is supported but not extensively tested yet)             |
|                                                                             |
 ----------------------------------------------------------------------------- 


 ----------------------------------------------------------------------------- 
|                                                                             |
|           W    W    AA    RRRRR   N    N  II  N    N   GGGG   !!!           |
|           W    W   A  A   R    R  NN   N  II  NN   N  G    G  !!!           |
|           W    W  A    A  R    R  N N  N  II  N N  N  G       !!!           |
|           W WW W  AAAAAA  RRRRR   N  N N  II  N  N N  G  GGG   !            |
|           WW  WW  A    A  R   R   N   NN  II  N   NN  G    G                |
|           W    W  A    A  R    R  N    N  II  N    N   GGGG   !!!           |
|                                                                             |
|      You have enabled k-point parallelism (KPAR>1).                         |
|      This developmental code was originally  written by Paul Kent at ORNL,  |
|      and carefully double checked in Vienna.                                |
|      GW as well as linear response parallelism added by Martijn Marsman     |
|      and Georg Kresse.                                                      |
|      Carefully verify results versus KPAR=1.                                |
|      Report problems to Paul Kent and Vienna.                               |
|                                                                             |
 ----------------------------------------------------------------------------- 

 POTCAR:    PAW_PBE In 08Apr2002                  
   VRHFIN =In: s2p1                                                             
   LEXCH  = PE                                                                  
   EATOM  =    53.7908 eV,    3.9535 Ry                                         
                                                                                
   TITEL  = PAW_PBE In 08Apr2002                                                
   LULTRA =        F    use ultrasoft PP ?                                      
   IUNSCR =        1    unscreen: 0-lin 1-nonlin 2-no                           
   RPACOR =    2.400    partial core radius                                     
   POMASS =  114.820; ZVAL   =    3.000    mass and valenz                      
   RCORE  =    3.100    outmost cutoff radius                                   
   RWIGS  =    3.170; RWIGS  =    1.677    wigner-seitz radius (au A)           
   ENMAX  =   95.934; ENMIN  =   71.951 eV                                      
   ICORE  =        3    local potential                                         
   LCOR   =        T    correct aug charges                                     
   LPAW   =        T    paw PP                                                  
   EAUG   =  237.125                                                            
   DEXC   =    0.000                                                            
   RMAX   =    3.168    core radius for proj-oper                               
   RAUG   =    1.300    factor for augmentation sphere                          
   RDEP   =    3.187    radius for radial grids                                 
   RDEPT  =    2.711    core radius for aug-charge                              
                                                                                
   Atomic configuration                                                         
   13 entries                                                                   
     n  l   j            E        occ.                                          
     1  0  0.50    -27747.9169   2.0000                                         
     2  0  0.50     -4154.4438   2.0000                                         
     2  1  1.50     -3728.4305   6.0000                                         
     3  0  0.50      -788.3680   2.0000                                         
     3  1  1.50      -648.9215   6.0000                                         
     3  2  2.50      -432.5893  10.0000                                         
     4  0  0.50      -119.6363   2.0000                                         
     4  1  1.50       -78.1086   6.0000                                         
     4  2  2.50       -18.6227  10.0000                                         
     5  0  0.50        -8.2107   2.0000                                         
     5  1  0.50        -2.5185   1.0000                                         
     5  2  2.50        -1.3606   0.0000                                         
     4  3  2.50        -2.7212   0.0000                                         
   Description                                                                  
     l       E           TYP  RCUT    TYP  RCUT                                 
     0     -8.2107306     23  3.100                                             
     0     -6.1485975     23  3.100                                             
     1     -2.5184867     23  3.100                                             
     1      3.2427302     23  3.100                                             
     2     -1.3605826     23  3.100                                             
     3     -1.3605826     23  3.100                                             
  local pseudopotential read in
  partial core-charges read in
  partial kinetic energy density read in
  atomic valenz-charges read in
  non local Contribution for L=           0  read in
    real space projection operators read in
  non local Contribution for L=           0  read in
    real space projection operators read in
  non local Contribution for L=           1  read in
    real space projection operators read in
  non local Contribution for L=           1  read in
    real space projection operators read in
  non local Contribution for L=           2  read in
    real space projection operators read in
    PAW grid and wavefunctions read in
 
   number of l-projection  operators is LMAX  =           5
   number of lm-projection operators is LMMAX =          13
 
 POTCAR:    PAW_PBE As 22Sep2009                  
   VRHFIN =As: s2p3                                                             
   LEXCH  = PE                                                                  
   EATOM  =   170.1867 eV,   12.5084 Ry                                         
                                                                                
   TITEL  = PAW_PBE As 22Sep2009                                                
   LULTRA =        F    use ultrasoft PP ?                                      
   IUNSCR =        1    unscreen: 0-lin 1-nonlin 2-no                           
   RPACOR =    1.900    partial core radius                                     
   POMASS =   74.922; ZVAL   =    5.000    mass and valenz                      
   RCORE  =    2.100    outmost cutoff radius                                   
   RWIGS  =    2.300; RWIGS  =    1.217    wigner-seitz radius (au A)           
   ENMAX  =  208.702; ENMIN  =  156.526 eV                                      
   ICORE  =        3    local potential                                         
   LCOR   =        T    correct aug charges                                     
   LPAW   =        T    paw PP                                                  
   EAUG   =  462.758                                                            
   DEXC   =    0.000                                                            
   RMAX   =    2.144    core radius for proj-oper                               
   RAUG   =    1.300    factor for augmentation sphere                          
   RDEP   =    2.140    radius for radial grids                                 
   RDEPT  =    1.956    core radius for aug-charge                              
                                                                                
   Atomic configuration                                                         
   10 entries                                                                   
     n  l   j            E        occ.                                          
     1  0  0.50    -11718.0418   2.0000                                         
     2  0  0.50     -1486.5454   2.0000                                         
     2  1  1.50     -1303.3889   6.0000                                         
     3  0  0.50      -190.2849   2.0000                                         
     3  1  1.50      -133.6555   6.0000                                         
     3  2  2.50       -40.6443  10.0000                                         
     4  0  0.50       -14.4936   2.0000                                         
     4  1  0.50        -5.1947   3.0000                                         
     4  2  1.50        -5.4423   0.0000                                         
     4  3  2.50        -5.4423   0.0000                                         
   Description                                                                  
     l       E           TYP  RCUT    TYP  RCUT                                 
     0    -14.4935570     23  2.100                                             
     0    -11.9212055     23  2.100                                             
     1     -5.1947127     23  2.100                                             
     1     27.2116520     23  2.100                                             
     2     -5.4423304     23  2.100                                             
     3     -1.3605826      7  2.100                                             
  local pseudopotential read in
  partial core-charges read in
  partial kinetic energy density read in
  atomic valenz-charges read in
  non local Contribution for L=           0  read in
    real space projection operators read in
  non local Contribution for L=           0  read in
    real space projection operators read in
  non local Contribution for L=           1  read in
    real space projection operators read in
  non local Contribution for L=           1  read in
    real space projection operators read in
  non local Contribution for L=           2  read in
    real space projection operators read in
    PAW grid and wavefunctions read in
 
   number of l-projection  operators is LMAX  =           5
   number of lm-projection operators is LMMAX =          13
 
  PAW_PBE In 08Apr2002                  :
 energy of atom  1       EATOM=  -53.7908
 kinetic energy error for atom=    0.0000 (will be added to EATOM!!)
  PAW_PBE As 22Sep2009                  :
 energy of atom  2       EATOM= -170.1867
 kinetic energy error for atom=    0.0013 (will be added to EATOM!!)
 
 
 POSCAR: In1 As1                                 
  positions in direct lattice
  No initial velocities read in
 exchange correlation table for  LEXCH =        8
   RHO(1)=    0.500       N(1)  =     2000
   RHO(2)=  100.500       N(2)  =     4000
 


--------------------------------------------------------------------------------------------------------


 ion  position               nearest neighbor table
   1  0.000  0.000  0.000-   2 2.62   2 2.62   2 2.62   2 2.62
   2  0.750  0.750  0.750-   1 2.62   1 2.62   1 2.62   1 2.62
 
  LATTYP: Found a face centered cubic cell.
 ALAT       =     6.0584000000
  
  Lattice vectors:
  
 A1 = (   0.0000000000,   3.0292000000,   3.0292000000)
 A2 = (   3.0292000000,   0.0000000000,   3.0292000000)
 A3 = (   3.0292000000,   3.0292000000,   0.0000000000)


Analysis of symmetry for initial positions (statically):
=====================================================================
 Subroutine PRICEL returns:
 Original cell was already a primitive cell.
 

 Routine SETGRP: Setting up the symmetry group for a 
 face centered cubic supercell.


 Subroutine GETGRP returns: Found 24 space group operations
 (whereof 24 operations were pure point group operations)
 out of a pool of 48 trial point group operations.


The static configuration has the point symmetry T_d .


Analysis of symmetry for dynamics (positions and initial velocities):
=====================================================================
 Subroutine PRICEL returns:
 Original cell was already a primitive cell.
 

 Routine SETGRP: Setting up the symmetry group for a 
 face centered cubic supercell.


 Subroutine GETGRP returns: Found 24 space group operations
 (whereof 24 operations were pure point group operations)
 out of a pool of 48 trial point group operations.


The dynamic configuration has the point symmetry T_d .


Analysis of structural, dynamic, and magnetic symmetry:
=====================================================================
 Subroutine PRICEL returns:
 Original cell was already a primitive cell.
 

 Routine SETGRP: Setting up the symmetry group for a 
 face centered cubic supercell.


 Subroutine GETGRP returns: Found 24 space group operations
 (whereof 24 operations were pure point group operations)
 out of a pool of 48 trial point group operations.


The (compounded) configuration has the point symmetry T_d .


 Subroutine INISYM returns: Found 24 space group operations
 (whereof 24 operations are pure point group operations),
 and found     1 'primitive' translations

 
 
 KPOINTS: Automatically generated mesh            
  k-points in reciprocal lattice
Space group operators:
 irot       det(A)        alpha          n_x          n_y          n_z        tau_x        tau_y        tau_z
    1     1.000000     0.000000     1.000000     0.000000     0.000000     0.000000     0.000000     0.000000
    2     1.000000   120.000000    -0.577350    -0.577350    -0.577350     0.000000     0.000000     0.000000
    3     1.000000   120.000000     0.577350     0.577350     0.577350     0.000000     0.000000     0.000000
    4    -1.000000    90.000000     0.000000     0.000000    -1.000000     0.000000     0.000000     0.000000
    5    -1.000000   180.000000     0.000000     0.707107     0.707107     0.000000     0.000000     0.000000
    6    -1.000000    90.000000     0.000000     1.000000     0.000000     0.000000     0.000000     0.000000
    7     1.000000   180.000000     0.000000     0.000000     1.000000     0.000000     0.000000     0.000000
    8     1.000000   120.000000    -0.577350     0.577350     0.577350     0.000000     0.000000     0.000000
    9     1.000000   120.000000    -0.577350     0.577350    -0.577350     0.000000     0.000000     0.000000
   10    -1.000000    90.000000     0.000000     0.000000     1.000000     0.000000     0.000000     0.000000
   11    -1.000000    90.000000    -1.000000     0.000000     0.000000     0.000000     0.000000     0.000000
   12    -1.000000   180.000000     0.707107     0.000000     0.707107     0.000000     0.000000     0.000000
   13     1.000000   120.000000     0.577350    -0.577350     0.577350     0.000000     0.000000     0.000000
   14     1.000000   120.000000    -0.577350    -0.577350     0.577350     0.000000     0.000000     0.000000
   15     1.000000   180.000000     1.000000     0.000000     0.000000     0.000000     0.000000     0.000000
   16    -1.000000    90.000000     0.000000    -1.000000     0.000000     0.000000     0.000000     0.000000
   17    -1.000000   180.000000     0.707107     0.707107     0.000000     0.000000     0.000000     0.000000
   18    -1.000000    90.000000     1.000000     0.000000     0.000000     0.000000     0.000000     0.000000
   19     1.000000   120.000000     0.577350    -0.577350    -0.577350     0.000000     0.000000     0.000000
   20     1.000000   180.000000     0.000000     1.000000     0.000000     0.000000     0.000000     0.000000
   21     1.000000   120.000000     0.577350     0.577350    -0.577350     0.000000     0.000000     0.000000
   22    -1.000000   180.000000     0.000000    -0.707107     0.707107     0.000000     0.000000     0.000000
   23    -1.000000   180.000000     0.707107    -0.707107     0.000000     0.000000     0.000000     0.000000
   24    -1.000000   180.000000     0.707107     0.000000    -0.707107     0.000000     0.000000     0.000000

 ----------------------------------------------------------------------------- 
|                                                                             |
|           W    W    AA    RRRRR   N    N  II  N    N   GGGG   !!!           |
|           W    W   A  A   R    R  NN   N  II  NN   N  G    G  !!!           |
|           W    W  A    A  R    R  N N  N  II  N N  N  G       !!!           |
|           W WW W  AAAAAA  RRRRR   N  N N  II  N  N N  G  GGG   !            |
|           WW  WW  A    A  R   R   N   NN  II  N   NN  G    G                |
|           W    W  A    A  R    R  N    N  II  N    N   GGGG   !!!           |
|                                                                             |
|      Your generating k-point grid is not commensurate to the symmetry       |
|      of the lattice.  This can cause   slow convergence with respect        |
|      to k-points for HF type calculations                                   |
|      suggested SOLUTIONS:                                                   |
|       ) if not already the case, use automatic k-point generation           |
|       ) shift your grid to Gamma (G) (e.g. required for hex or fcc lattice) |
|                                                                             |
 ----------------------------------------------------------------------------- 

 
 Subroutine IBZKPT_HF returns following result:
 ==============================================
 
 Found    593 k-points in 1st BZ
 the following    593 k-points will be used (e.g. in the exchange kernel)
 Following reciprocal coordinates:   # in IRBZ
  0.000000  0.000000  0.000000    0.00291545   1 t-inv F
  0.142857  0.000000  0.000000    0.00291545   2 t-inv F
  0.285714  0.000000  0.000000    0.00291545   3 t-inv F
  0.428571  0.000000  0.000000    0.00291545   4 t-inv F
 -0.428571  0.000000  0.000000    0.00291545   5 t-inv F
 -0.285714  0.000000  0.000000    0.00291545   6 t-inv F
 -0.142857  0.000000  0.000000    0.00291545   7 t-inv F
  0.142857  0.142857  0.000000    0.00291545   8 t-inv F
  0.285714  0.142857  0.000000    0.00291545   9 t-inv F
  0.428571  0.142857  0.000000    0.00291545  10 t-inv F
 -0.428571  0.142857  0.000000    0.00291545  11 t-inv F
 -0.285714  0.142857  0.000000    0.00291545  12 t-inv F
 -0.142857  0.142857  0.000000    0.00291545  13 t-inv F
  0.285714  0.285714  0.000000    0.00291545  14 t-inv F
  0.428571  0.285714  0.000000    0.00291545  15 t-inv F
 -0.428571  0.285714  0.000000    0.00291545  16 t-inv F
 -0.285714  0.285714  0.000000    0.00291545  17 t-inv F
 -0.142857  0.285714  0.000000    0.00291545  18 t-inv F
  0.428571  0.428571  0.000000    0.00291545  19 t-inv F
 -0.428571  0.428571  0.000000    0.00291545  20 t-inv F
 -0.285714  0.428571  0.000000    0.00291545  21 t-inv F
 -0.142857  0.428571  0.000000    0.00291545  22 t-inv F
 -0.285714 -0.428571  0.000000    0.00291545  23 t-inv F
 -0.142857 -0.428571  0.000000    0.00291545  24 t-inv F
 -0.142857 -0.285714  0.000000    0.00291545  25 t-inv F
  0.428571  0.285714  0.142857    0.00291545  26 t-inv F
 -0.428571  0.285714  0.142857    0.00291545  27 t-inv F
 -0.285714  0.285714  0.142857    0.00291545  28 t-inv F
 -0.428571  0.428571  0.142857    0.00291545  29 t-inv F
 -0.285714  0.428571  0.142857    0.00291545  30 t-inv F
  0.000000  0.000000  0.000000    0.00000000  31 t-inv F
  0.010204  0.000000  0.010204    0.00000000  32 t-inv F
  0.020408  0.000000  0.020408    0.00000000  33 t-inv F
  0.030612  0.000000  0.030612    0.00000000  34 t-inv F
  0.040816  0.000000  0.040816    0.00000000  35 t-inv F
  0.051020  0.000000  0.051020    0.00000000  36 t-inv F
  0.061224  0.000000  0.061224    0.00000000  37 t-inv F
  0.071429  0.000000  0.071429    0.00000000  38 t-inv F
  0.081633  0.000000  0.081633    0.00000000  39 t-inv F
  0.091837  0.000000  0.091837    0.00000000  40 t-inv F
  0.102041  0.000000  0.102041    0.00000000  41 t-inv F
  0.112245  0.000000  0.112245    0.00000000  42 t-inv F
  0.122449  0.000000  0.122449    0.00000000  43 t-inv F
  0.132653  0.000000  0.132653    0.00000000  44 t-inv F
  0.142857  0.000000  0.142857    0.00000000  45 t-inv F
  0.153061  0.000000  0.153061    0.00000000  46 t-inv F
  0.163265  0.000000  0.163265    0.00000000  47 t-inv F
  0.173469  0.000000  0.173469    0.00000000  48 t-inv F
  0.183673  0.000000  0.183673    0.00000000  49 t-inv F
  0.193878  0.000000  0.193878    0.00000000  50 t-inv F
  0.204082  0.000000  0.204082    0.00000000  51 t-inv F
  0.214286  0.000000  0.214286    0.00000000  52 t-inv F
  0.224490  0.000000  0.224490    0.00000000  53 t-inv F
  0.234694  0.000000  0.234694    0.00000000  54 t-inv F
  0.244898  0.000000  0.244898    0.00000000  55 t-inv F
  0.255102  0.000000  0.255102    0.00000000  56 t-inv F
  0.265306  0.000000  0.265306    0.00000000  57 t-inv F
  0.275510  0.000000  0.275510    0.00000000  58 t-inv F
  0.285714  0.000000  0.285714    0.00000000  59 t-inv F
  0.295918  0.000000  0.295918    0.00000000  60 t-inv F
  0.306122  0.000000  0.306122    0.00000000  61 t-inv F
  0.316327  0.000000  0.316327    0.00000000  62 t-inv F
  0.326531  0.000000  0.326531    0.00000000  63 t-inv F
  0.336735  0.000000  0.336735    0.00000000  64 t-inv F
  0.346939  0.000000  0.346939    0.00000000  65 t-inv F
  0.357143  0.000000  0.357143    0.00000000  66 t-inv F
  0.367347  0.000000  0.367347    0.00000000  67 t-inv F
  0.377551  0.000000  0.377551    0.00000000  68 t-inv F
  0.387755  0.000000  0.387755    0.00000000  69 t-inv F
  0.397959  0.000000  0.397959    0.00000000  70 t-inv F
  0.408163  0.000000  0.408163    0.00000000  71 t-inv F
  0.418367  0.000000  0.418367    0.00000000  72 t-inv F
  0.428571  0.000000  0.428571    0.00000000  73 t-inv F
  0.438776  0.000000  0.438776    0.00000000  74 t-inv F
  0.448980  0.000000  0.448980    0.00000000  75 t-inv F
  0.459184  0.000000  0.459184    0.00000000  76 t-inv F
  0.469388  0.000000  0.469388    0.00000000  77 t-inv F
  0.479592  0.000000  0.479592    0.00000000  78 t-inv F
  0.489796  0.000000  0.489796    0.00000000  79 t-inv F
  0.500000  0.000000  0.500000    0.00000000  80 t-inv F
  0.500000  0.000000  0.500000    0.00000000  81 t-inv F
  0.500000  0.005102  0.505102    0.00000000  82 t-inv F
  0.500000  0.010204  0.510204    0.00000000  83 t-inv F
  0.500000  0.015306  0.515306    0.00000000  84 t-inv F
  0.500000  0.020408  0.520408    0.00000000  85 t-inv F
  0.500000  0.025510  0.525510    0.00000000  86 t-inv F
  0.500000  0.030612  0.530612    0.00000000  87 t-inv F
  0.500000  0.035714  0.535714    0.00000000  88 t-inv F
  0.500000  0.040816  0.540816    0.00000000  89 t-inv F
  0.500000  0.045918  0.545918    0.00000000  90 t-inv F
  0.500000  0.051020  0.551020    0.00000000  91 t-inv F
  0.500000  0.056122  0.556122    0.00000000  92 t-inv F
  0.500000  0.061224  0.561224    0.00000000  93 t-inv F
  0.500000  0.066327  0.566327    0.00000000  94 t-inv F
  0.500000  0.071429  0.571429    0.00000000  95 t-inv F
  0.500000  0.076531  0.576531    0.00000000  96 t-inv F
  0.500000  0.081633  0.581633    0.00000000  97 t-inv F
  0.500000  0.086735  0.586735    0.00000000  98 t-inv F
  0.500000  0.091837  0.591837    0.00000000  99 t-inv F
  0.500000  0.096939  0.596939    0.00000000 100 t-inv F
  0.500000  0.102041  0.602041    0.00000000 101 t-inv F
  0.500000  0.107143  0.607143    0.00000000 102 t-inv F
  0.500000  0.112245  0.612245    0.00000000 103 t-inv F
  0.500000  0.117347  0.617347    0.00000000 104 t-inv F
  0.500000  0.122449  0.622449    0.00000000 105 t-inv F
  0.500000  0.127551  0.627551    0.00000000 106 t-inv F
  0.500000  0.132653  0.632653    0.00000000 107 t-inv F
  0.500000  0.137755  0.637755    0.00000000 108 t-inv F
  0.500000  0.142857  0.642857    0.00000000 109 t-inv F
  0.500000  0.147959  0.647959    0.00000000 110 t-inv F
  0.500000  0.153061  0.653061    0.00000000 111 t-inv F
  0.500000  0.158163  0.658163    0.00000000 112 t-inv F
  0.500000  0.163265  0.663265    0.00000000 113 t-inv F
  0.500000  0.168367  0.668367    0.00000000 114 t-inv F
  0.500000  0.173469  0.673469    0.00000000 115 t-inv F
  0.500000  0.178571  0.678571    0.00000000 116 t-inv F
  0.500000  0.183673  0.683673    0.00000000 117 t-inv F
  0.500000  0.188776  0.688776    0.00000000 118 t-inv F
  0.500000  0.193878  0.693878    0.00000000 119 t-inv F
  0.500000  0.198980  0.698980    0.00000000 120 t-inv F
  0.500000  0.204082  0.704082    0.00000000 121 t-inv F
  0.500000  0.209184  0.709184    0.00000000 122 t-inv F
  0.500000  0.214286  0.714286    0.00000000 123 t-inv F
  0.500000  0.219388  0.719388    0.00000000 124 t-inv F
  0.500000  0.224490  0.724490    0.00000000 125 t-inv F
  0.500000  0.229592  0.729592    0.00000000 126 t-inv F
  0.500000  0.234694  0.734694    0.00000000 127 t-inv F
  0.500000  0.239796  0.739796    0.00000000 128 t-inv F
  0.500000  0.244898  0.744898    0.00000000 129 t-inv F
  0.500000  0.250000  0.750000    0.00000000 130 t-inv F
  0.500000  0.250000  0.750000    0.00000000 131 t-inv F
  0.500000  0.255102  0.744898    0.00000000 132 t-inv F
  0.500000  0.260204  0.739796    0.00000000 133 t-inv F
  0.500000  0.265306  0.734694    0.00000000 134 t-inv F
  0.500000  0.270408  0.729592    0.00000000 135 t-inv F
  0.500000  0.275510  0.724490    0.00000000 136 t-inv F
  0.500000  0.280612  0.719388    0.00000000 137 t-inv F
  0.500000  0.285714  0.714286    0.00000000 138 t-inv F
  0.500000  0.290816  0.709184    0.00000000 139 t-inv F
  0.500000  0.295918  0.704082    0.00000000 140 t-inv F
  0.500000  0.301020  0.698980    0.00000000 141 t-inv F
  0.500000  0.306122  0.693878    0.00000000 142 t-inv F
  0.500000  0.311224  0.688776    0.00000000 143 t-inv F
  0.500000  0.316327  0.683673    0.00000000 144 t-inv F
  0.500000  0.321429  0.678571    0.00000000 145 t-inv F
  0.500000  0.326531  0.673469    0.00000000 146 t-inv F
  0.500000  0.331633  0.668367    0.00000000 147 t-inv F
  0.500000  0.336735  0.663265    0.00000000 148 t-inv F
  0.500000  0.341837  0.658163    0.00000000 149 t-inv F
  0.500000  0.346939  0.653061    0.00000000 150 t-inv F
  0.500000  0.352041  0.647959    0.00000000 151 t-inv F
  0.500000  0.357143  0.642857    0.00000000 152 t-inv F
  0.500000  0.362245  0.637755    0.00000000 153 t-inv F
  0.500000  0.367347  0.632653    0.00000000 154 t-inv F
  0.500000  0.372449  0.627551    0.00000000 155 t-inv F
  0.500000  0.377551  0.622449    0.00000000 156 t-inv F
  0.500000  0.382653  0.617347    0.00000000 157 t-inv F
  0.500000  0.387755  0.612245    0.00000000 158 t-inv F
  0.500000  0.392857  0.607143    0.00000000 159 t-inv F
  0.500000  0.397959  0.602041    0.00000000 160 t-inv F
  0.500000  0.403061  0.596939    0.00000000 161 t-inv F
  0.500000  0.408163  0.591837    0.00000000 162 t-inv F
  0.500000  0.413265  0.586735    0.00000000 163 t-inv F
  0.500000  0.418367  0.581633    0.00000000 164 t-inv F
  0.500000  0.423469  0.576531    0.00000000 165 t-inv F
  0.500000  0.428571  0.571429    0.00000000 166 t-inv F
  0.500000  0.433673  0.566327    0.00000000 167 t-inv F
  0.500000  0.438776  0.561224    0.00000000 168 t-inv F
  0.500000  0.443878  0.556122    0.00000000 169 t-inv F
  0.500000  0.448980  0.551020    0.00000000 170 t-inv F
  0.500000  0.454082  0.545918    0.00000000 171 t-inv F
  0.500000  0.459184  0.540816    0.00000000 172 t-inv F
  0.500000  0.464286  0.535714    0.00000000 173 t-inv F
  0.500000  0.469388  0.530612    0.00000000 174 t-inv F
  0.500000  0.474490  0.525510    0.00000000 175 t-inv F
  0.500000  0.479592  0.520408    0.00000000 176 t-inv F
  0.500000  0.484694  0.515306    0.00000000 177 t-inv F
  0.500000  0.489796  0.510204    0.00000000 178 t-inv F
  0.500000  0.494898  0.505102    0.00000000 179 t-inv F
  0.500000  0.500000  0.500000    0.00000000 180 t-inv F
  0.500000  0.500000  0.500000    0.00000000 181 t-inv F
  0.489796  0.489796  0.489796    0.00000000 182 t-inv F
  0.479592  0.479592  0.479592    0.00000000 183 t-inv F
  0.469388  0.469388  0.469388    0.00000000 184 t-inv F
  0.459184  0.459184  0.459184    0.00000000 185 t-inv F
  0.448980  0.448980  0.448980    0.00000000 186 t-inv F
  0.438776  0.438776  0.438776    0.00000000 187 t-inv F
  0.428571  0.428571  0.428571    0.00000000 188 t-inv F
  0.418367  0.418367  0.418367    0.00000000 189 t-inv F
  0.408163  0.408163  0.408163    0.00000000 190 t-inv F
  0.397959  0.397959  0.397959    0.00000000 191 t-inv F
  0.387755  0.387755  0.387755    0.00000000 192 t-inv F
  0.377551  0.377551  0.377551    0.00000000 193 t-inv F
  0.367347  0.367347  0.367347    0.00000000 194 t-inv F
  0.357143  0.357143  0.357143    0.00000000 195 t-inv F
  0.346939  0.346939  0.346939    0.00000000 196 t-inv F
  0.336735  0.336735  0.336735    0.00000000 197 t-inv F
  0.326531  0.326531  0.326531    0.00000000 198 t-inv F
  0.316327  0.316327  0.316327    0.00000000 199 t-inv F
  0.306122  0.306122  0.306122    0.00000000 200 t-inv F
  0.295918  0.295918  0.295918    0.00000000 201 t-inv F
  0.285714  0.285714  0.285714    0.00000000 202 t-inv F
  0.275510  0.275510  0.275510    0.00000000 203 t-inv F
  0.265306  0.265306  0.265306    0.00000000 204 t-inv F
  0.255102  0.255102  0.255102    0.00000000 205 t-inv F
  0.244898  0.244898  0.244898    0.00000000 206 t-inv F
  0.234694  0.234694  0.234694    0.00000000 207 t-inv F
  0.224490  0.224490  0.224490    0.00000000 208 t-inv F
  0.214286  0.214286  0.214286    0.00000000 209 t-inv F
  0.204082  0.204082  0.204082    0.00000000 210 t-inv F
  0.193878  0.193878  0.193878    0.00000000 211 t-inv F
  0.183673  0.183673  0.183673    0.00000000 212 t-inv F
  0.173469  0.173469  0.173469    0.00000000 213 t-inv F
  0.163265  0.163265  0.163265    0.00000000 214 t-inv F
  0.153061  0.153061  0.153061    0.00000000 215 t-inv F
  0.142857  0.142857  0.142857    0.00000000 216 t-inv F
  0.132653  0.132653  0.132653    0.00000000 217 t-inv F
  0.122449  0.122449  0.122449    0.00000000 218 t-inv F
  0.112245  0.112245  0.112245    0.00000000 219 t-inv F
  0.102041  0.102041  0.102041    0.00000000 220 t-inv F
  0.091837  0.091837  0.091837    0.00000000 221 t-inv F
  0.081633  0.081633  0.081633    0.00000000 222 t-inv F
  0.071429  0.071429  0.071429    0.00000000 223 t-inv F
  0.061224  0.061224  0.061224    0.00000000 224 t-inv F
  0.051020  0.051020  0.051020    0.00000000 225 t-inv F
  0.040816  0.040816  0.040816    0.00000000 226 t-inv F
  0.030612  0.030612  0.030612    0.00000000 227 t-inv F
  0.020408  0.020408  0.020408    0.00000000 228 t-inv F
  0.010204  0.010204  0.010204    0.00000000 229 t-inv F
  0.000000  0.000000  0.000000    0.00000000 230 t-inv F
  0.000000  0.000000  0.000000    0.00000000 231 t-inv F
  0.007653  0.007653  0.015306    0.00000000 232 t-inv F
  0.015306  0.015306  0.030612    0.00000000 233 t-inv F
  0.022959  0.022959  0.045918    0.00000000 234 t-inv F
  0.030612  0.030612  0.061224    0.00000000 235 t-inv F
  0.038265  0.038265  0.076531    0.00000000 236 t-inv F
  0.045918  0.045918  0.091837    0.00000000 237 t-inv F
  0.053571  0.053571  0.107143    0.00000000 238 t-inv F
  0.061224  0.061224  0.122449    0.00000000 239 t-inv F
  0.068878  0.068878  0.137755    0.00000000 240 t-inv F
  0.076531  0.076531  0.153061    0.00000000 241 t-inv F
  0.084184  0.084184  0.168367    0.00000000 242 t-inv F
  0.091837  0.091837  0.183673    0.00000000 243 t-inv F
  0.099490  0.099490  0.198980    0.00000000 244 t-inv F
  0.107143  0.107143  0.214286    0.00000000 245 t-inv F
  0.114796  0.114796  0.229592    0.00000000 246 t-inv F
  0.122449  0.122449  0.244898    0.00000000 247 t-inv F
  0.130102  0.130102  0.260204    0.00000000 248 t-inv F
  0.137755  0.137755  0.275510    0.00000000 249 t-inv F
  0.145408  0.145408  0.290816    0.00000000 250 t-inv F
  0.153061  0.153061  0.306122    0.00000000 251 t-inv F
  0.160714  0.160714  0.321429    0.00000000 252 t-inv F
  0.168367  0.168367  0.336735    0.00000000 253 t-inv F
  0.176020  0.176020  0.352041    0.00000000 254 t-inv F
  0.183673  0.183673  0.367347    0.00000000 255 t-inv F
  0.191327  0.191327  0.382653    0.00000000 256 t-inv F
  0.198980  0.198980  0.397959    0.00000000 257 t-inv F
  0.206633  0.206633  0.413265    0.00000000 258 t-inv F
  0.214286  0.214286  0.428571    0.00000000 259 t-inv F
  0.221939  0.221939  0.443878    0.00000000 260 t-inv F
  0.229592  0.229592  0.459184    0.00000000 261 t-inv F
  0.237245  0.237245  0.474490    0.00000000 262 t-inv F
  0.244898  0.244898  0.489796    0.00000000 263 t-inv F
  0.252551  0.252551  0.505102    0.00000000 264 t-inv F
  0.260204  0.260204  0.520408    0.00000000 265 t-inv F
  0.267857  0.267857  0.535714    0.00000000 266 t-inv F
  0.275510  0.275510  0.551020    0.00000000 267 t-inv F
  0.283163  0.283163  0.566327    0.00000000 268 t-inv F
  0.290816  0.290816  0.581633    0.00000000 269 t-inv F
  0.298469  0.298469  0.596939    0.00000000 270 t-inv F
  0.306122  0.306122  0.612245    0.00000000 271 t-inv F
  0.313776  0.313776  0.627551    0.00000000 272 t-inv F
  0.321429  0.321429  0.642857    0.00000000 273 t-inv F
  0.329082  0.329082  0.658163    0.00000000 274 t-inv F
  0.336735  0.336735  0.673469    0.00000000 275 t-inv F
  0.344388  0.344388  0.688776    0.00000000 276 t-inv F
  0.352041  0.352041  0.704082    0.00000000 277 t-inv F
  0.359694  0.359694  0.719388    0.00000000 278 t-inv F
  0.367347  0.367347  0.734694    0.00000000 279 t-inv F
  0.375000  0.375000  0.750000    0.00000000 280 t-inv F
  0.000000  0.142857  0.000000    0.00291545   2 t-inv F
  0.000000  0.000000  0.142857    0.00291545   2 t-inv F
 -0.142857 -0.142857 -0.142857    0.00291545   2 t-inv F
  0.000000  0.285714  0.000000    0.00291545   3 t-inv F
  0.000000  0.000000  0.285714    0.00291545   3 t-inv F
 -0.285714 -0.285714 -0.285714    0.00291545   3 t-inv F
  0.000000  0.428571  0.000000    0.00291545   4 t-inv F
  0.000000  0.000000  0.428571    0.00291545   4 t-inv F
 -0.428571 -0.428571 -0.428571    0.00291545   4 t-inv F
  0.000000 -0.428571  0.000000    0.00291545   5 t-inv F
  0.000000  0.000000 -0.428571    0.00291545   5 t-inv F
  0.428571  0.428571  0.428571    0.00291545   5 t-inv F
  0.000000 -0.285714  0.000000    0.00291545   6 t-inv F
  0.000000  0.000000 -0.285714    0.00291545   6 t-inv F
  0.285714  0.285714  0.285714    0.00291545   6 t-inv F
  0.000000 -0.142857  0.000000    0.00291545   7 t-inv F
  0.000000  0.000000 -0.142857    0.00291545   7 t-inv F
  0.142857  0.142857  0.142857    0.00291545   7 t-inv F
  0.000000  0.142857  0.142857    0.00291545   8 t-inv F
  0.142857  0.000000  0.142857    0.00291545   8 t-inv F
 -0.142857 -0.142857  0.000000    0.00291545   8 t-inv F
 -0.142857  0.000000 -0.142857    0.00291545   8 t-inv F
  0.000000 -0.142857 -0.142857    0.00291545   8 t-inv F
  0.000000  0.285714  0.142857    0.00291545   9 t-inv F
  0.142857  0.000000  0.285714    0.00291545   9 t-inv F
 -0.142857 -0.142857  0.142857    0.00291545   9 t-inv F
 -0.285714 -0.142857 -0.285714    0.00291545   9 t-inv F
  0.142857  0.285714  0.000000    0.00291545   9 t-inv F
  0.142857 -0.142857 -0.142857    0.00291545   9 t-inv F
 -0.285714 -0.285714 -0.142857    0.00291545   9 t-inv F
  0.000000  0.142857  0.285714    0.00291545   9 t-inv F
 -0.142857  0.142857 -0.142857    0.00291545   9 t-inv F
 -0.142857 -0.285714 -0.285714    0.00291545   9 t-inv F
  0.285714  0.000000  0.142857    0.00291545   9 t-inv F
  0.000000  0.428571  0.142857    0.00291545  10 t-inv F
  0.142857  0.000000  0.428571    0.00291545  10 t-inv F
 -0.142857 -0.142857  0.285714    0.00291545  10 t-inv F
 -0.428571 -0.285714 -0.428571    0.00291545  10 t-inv F
  0.142857  0.428571  0.000000    0.00291545  10 t-inv F
  0.285714 -0.142857 -0.142857    0.00291545  10 t-inv F
 -0.428571 -0.428571 -0.285714    0.00291545  10 t-inv F
  0.000000  0.142857  0.428571    0.00291545  10 t-inv F
 -0.142857  0.285714 -0.142857    0.00291545  10 t-inv F
 -0.285714 -0.428571 -0.428571    0.00291545  10 t-inv F
  0.428571  0.000000  0.142857    0.00291545  10 t-inv F
  0.000000 -0.428571  0.142857    0.00291545  11 t-inv F
  0.142857  0.000000 -0.428571    0.00291545  11 t-inv F
 -0.142857 -0.142857 -0.571429    0.00291545  11 t-inv F
  0.428571  0.571429  0.428571    0.00291545  11 t-inv F
  0.142857 -0.428571  0.000000    0.00291545  11 t-inv F
 -0.571429 -0.142857 -0.142857    0.00291545  11 t-inv F
  0.428571  0.428571  0.571429    0.00291545  11 t-inv F
  0.000000  0.142857 -0.428571    0.00291545  11 t-inv F
 -0.142857 -0.571429 -0.142857    0.00291545  11 t-inv F
  0.571429  0.428571  0.428571    0.00291545  11 t-inv F
 -0.428571  0.000000  0.142857    0.00291545  11 t-inv F
  0.000000 -0.285714  0.142857    0.00291545  12 t-inv F
  0.142857  0.000000 -0.285714    0.00291545  12 t-inv F
 -0.142857 -0.142857 -0.428571    0.00291545  12 t-inv F
  0.285714  0.428571  0.285714    0.00291545  12 t-inv F
  0.142857 -0.285714  0.000000    0.00291545  12 t-inv F
 -0.428571 -0.142857 -0.142857    0.00291545  12 t-inv F
  0.285714  0.285714  0.428571    0.00291545  12 t-inv F
  0.000000  0.142857 -0.285714    0.00291545  12 t-inv F
 -0.142857 -0.428571 -0.142857    0.00291545  12 t-inv F
  0.428571  0.285714  0.285714    0.00291545  12 t-inv F
 -0.285714  0.000000  0.142857    0.00291545  12 t-inv F
  0.000000 -0.142857  0.142857    0.00291545  13 t-inv F
  0.142857  0.000000 -0.142857    0.00291545  13 t-inv F
 -0.142857 -0.142857 -0.285714    0.00291545  13 t-inv F
  0.142857  0.285714  0.142857    0.00291545  13 t-inv F
  0.142857 -0.142857  0.000000    0.00291545  13 t-inv F
 -0.285714 -0.142857 -0.142857    0.00291545  13 t-inv F
  0.142857  0.142857  0.285714    0.00291545  13 t-inv F
  0.000000  0.142857 -0.142857    0.00291545  13 t-inv F
 -0.142857 -0.285714 -0.142857    0.00291545  13 t-inv F
  0.285714  0.142857  0.142857    0.00291545  13 t-inv F
 -0.142857  0.000000  0.142857    0.00291545  13 t-inv F
  0.000000  0.285714  0.285714    0.00291545  14 t-inv F
  0.285714  0.000000  0.285714    0.00291545  14 t-inv F
 -0.285714 -0.285714  0.000000    0.00291545  14 t-inv F
 -0.285714  0.000000 -0.285714    0.00291545  14 t-inv F
  0.000000 -0.285714 -0.285714    0.00291545  14 t-inv F
  0.000000  0.428571  0.285714    0.00291545  15 t-inv F
  0.285714  0.000000  0.428571    0.00291545  15 t-inv F
 -0.285714 -0.285714  0.142857    0.00291545  15 t-inv F
 -0.428571 -0.142857 -0.428571    0.00291545  15 t-inv F
  0.285714  0.428571  0.000000    0.00291545  15 t-inv F
  0.142857 -0.285714 -0.285714    0.00291545  15 t-inv F
 -0.428571 -0.428571 -0.142857    0.00291545  15 t-inv F
  0.000000  0.285714  0.428571    0.00291545  15 t-inv F
 -0.285714  0.142857 -0.285714    0.00291545  15 t-inv F
 -0.142857 -0.428571 -0.428571    0.00291545  15 t-inv F
  0.428571  0.000000  0.285714    0.00291545  15 t-inv F
  0.000000 -0.428571  0.285714    0.00291545  16 t-inv F
  0.285714  0.000000 -0.428571    0.00291545  16 t-inv F
 -0.285714 -0.285714 -0.714286    0.00291545  16 t-inv F
  0.428571  0.714286  0.428571    0.00291545  16 t-inv F
  0.285714 -0.428571  0.000000    0.00291545  16 t-inv F
 -0.714286 -0.285714 -0.285714    0.00291545  16 t-inv F
  0.428571  0.428571  0.714286    0.00291545  16 t-inv F
  0.000000  0.285714 -0.428571    0.00291545  16 t-inv F
 -0.285714 -0.714286 -0.285714    0.00291545  16 t-inv F
  0.714286  0.428571  0.428571    0.00291545  16 t-inv F
 -0.428571  0.000000  0.285714    0.00291545  16 t-inv F
  0.000000 -0.285714  0.285714    0.00291545  17 t-inv F
  0.285714  0.000000 -0.285714    0.00291545  17 t-inv F
 -0.285714 -0.285714 -0.571429    0.00291545  17 t-inv F
  0.285714  0.571429  0.285714    0.00291545  17 t-inv F
  0.285714 -0.285714  0.000000    0.00291545  17 t-inv F
 -0.571429 -0.285714 -0.285714    0.00291545  17 t-inv F
  0.285714  0.285714  0.571429    0.00291545  17 t-inv F
  0.000000  0.285714 -0.285714    0.00291545  17 t-inv F
 -0.285714 -0.571429 -0.285714    0.00291545  17 t-inv F
  0.571429  0.285714  0.285714    0.00291545  17 t-inv F
 -0.285714  0.000000  0.285714    0.00291545  17 t-inv F
  0.000000 -0.142857  0.285714    0.00291545  18 t-inv F
  0.285714  0.000000 -0.142857    0.00291545  18 t-inv F
 -0.285714 -0.285714 -0.428571    0.00291545  18 t-inv F
  0.142857  0.428571  0.142857    0.00291545  18 t-inv F
  0.285714 -0.142857  0.000000    0.00291545  18 t-inv F
 -0.428571 -0.285714 -0.285714    0.00291545  18 t-inv F
  0.142857  0.142857  0.428571    0.00291545  18 t-inv F
  0.000000  0.285714 -0.142857    0.00291545  18 t-inv F
 -0.285714 -0.428571 -0.285714    0.00291545  18 t-inv F
  0.428571  0.142857  0.142857    0.00291545  18 t-inv F
 -0.142857  0.000000  0.285714    0.00291545  18 t-inv F
  0.000000  0.428571  0.428571    0.00291545  19 t-inv F
  0.428571  0.000000  0.428571    0.00291545  19 t-inv F
 -0.428571 -0.428571  0.000000    0.00291545  19 t-inv F
 -0.428571  0.000000 -0.428571    0.00291545  19 t-inv F
  0.000000 -0.428571 -0.428571    0.00291545  19 t-inv F
  0.000000 -0.428571  0.428571    0.00291545  20 t-inv F
  0.428571  0.000000 -0.428571    0.00291545  20 t-inv F
 -0.428571 -0.428571 -0.857143    0.00291545  20 t-inv F
  0.428571  0.857143  0.428571    0.00291545  20 t-inv F
  0.428571 -0.428571  0.000000    0.00291545  20 t-inv F
 -0.857143 -0.428571 -0.428571    0.00291545  20 t-inv F
  0.428571  0.428571  0.857143    0.00291545  20 t-inv F
  0.000000  0.428571 -0.428571    0.00291545  20 t-inv F
 -0.428571 -0.857143 -0.428571    0.00291545  20 t-inv F
  0.857143  0.428571  0.428571    0.00291545  20 t-inv F
 -0.428571  0.000000  0.428571    0.00291545  20 t-inv F
  0.000000 -0.285714  0.428571    0.00291545  21 t-inv F
  0.428571  0.000000 -0.285714    0.00291545  21 t-inv F
 -0.428571 -0.428571 -0.714286    0.00291545  21 t-inv F
  0.285714  0.714286  0.285714    0.00291545  21 t-inv F
  0.428571 -0.285714  0.000000    0.00291545  21 t-inv F
 -0.714286 -0.428571 -0.428571    0.00291545  21 t-inv F
  0.285714  0.285714  0.714286    0.00291545  21 t-inv F
  0.000000  0.428571 -0.285714    0.00291545  21 t-inv F
 -0.428571 -0.714286 -0.428571    0.00291545  21 t-inv F
  0.714286  0.285714  0.285714    0.00291545  21 t-inv F
 -0.285714  0.000000  0.428571    0.00291545  21 t-inv F
  0.000000 -0.142857  0.428571    0.00291545  22 t-inv F
  0.428571  0.000000 -0.142857    0.00291545  22 t-inv F
 -0.428571 -0.428571 -0.571429    0.00291545  22 t-inv F
  0.142857  0.571429  0.142857    0.00291545  22 t-inv F
  0.428571 -0.142857  0.000000    0.00291545  22 t-inv F
 -0.571429 -0.428571 -0.428571    0.00291545  22 t-inv F
  0.142857  0.142857  0.571429    0.00291545  22 t-inv F
  0.000000  0.428571 -0.142857    0.00291545  22 t-inv F
 -0.428571 -0.571429 -0.428571    0.00291545  22 t-inv F
  0.571429  0.142857  0.142857    0.00291545  22 t-inv F
 -0.142857  0.000000  0.428571    0.00291545  22 t-inv F
  0.000000 -0.285714 -0.428571    0.00291545  23 t-inv F
 -0.428571  0.000000 -0.285714    0.00291545  23 t-inv F
  0.428571  0.428571  0.142857    0.00291545  23 t-inv F
  0.285714 -0.142857  0.285714    0.00291545  23 t-inv F
 -0.428571 -0.285714  0.000000    0.00291545  23 t-inv F
  0.142857  0.428571  0.428571    0.00291545  23 t-inv F
  0.285714  0.285714 -0.142857    0.00291545  23 t-inv F
  0.000000 -0.428571 -0.285714    0.00291545  23 t-inv F
  0.428571  0.142857  0.428571    0.00291545  23 t-inv F
 -0.142857  0.285714  0.285714    0.00291545  23 t-inv F
 -0.285714  0.000000 -0.428571    0.00291545  23 t-inv F
  0.000000 -0.142857 -0.428571    0.00291545  24 t-inv F
 -0.428571  0.000000 -0.142857    0.00291545  24 t-inv F
  0.428571  0.428571  0.285714    0.00291545  24 t-inv F
  0.142857 -0.285714  0.142857    0.00291545  24 t-inv F
 -0.428571 -0.142857  0.000000    0.00291545  24 t-inv F
  0.285714  0.428571  0.428571    0.00291545  24 t-inv F
  0.142857  0.142857 -0.285714    0.00291545  24 t-inv F
  0.000000 -0.428571 -0.142857    0.00291545  24 t-inv F
  0.428571  0.285714  0.428571    0.00291545  24 t-inv F
 -0.285714  0.142857  0.142857    0.00291545  24 t-inv F
 -0.142857  0.000000 -0.428571    0.00291545  24 t-inv F
  0.000000 -0.142857 -0.285714    0.00291545  25 t-inv F
 -0.285714  0.000000 -0.142857    0.00291545  25 t-inv F
  0.285714  0.285714  0.142857    0.00291545  25 t-inv F
  0.142857 -0.142857  0.142857    0.00291545  25 t-inv F
 -0.285714 -0.142857  0.000000    0.00291545  25 t-inv F
  0.142857  0.285714  0.285714    0.00291545  25 t-inv F
  0.142857  0.142857 -0.142857    0.00291545  25 t-inv F
  0.000000 -0.285714 -0.142857    0.00291545  25 t-inv F
  0.285714  0.142857  0.285714    0.00291545  25 t-inv F
 -0.142857  0.142857  0.142857    0.00291545  25 t-inv F
 -0.142857  0.000000 -0.285714    0.00291545  25 t-inv F
  0.142857  0.428571  0.285714    0.00291545  26 t-inv F
  0.285714  0.142857  0.428571    0.00291545  26 t-inv F
 -0.285714 -0.142857  0.142857    0.00291545  26 t-inv F
 -0.428571 -0.142857 -0.285714    0.00291545  26 t-inv F
 -0.142857  0.285714  0.142857    0.00291545  26 t-inv F
  0.142857  0.285714 -0.142857    0.00291545  26 t-inv F
  0.142857 -0.142857 -0.285714    0.00291545  26 t-inv F
 -0.285714 -0.142857 -0.428571    0.00291545  26 t-inv F
 -0.285714 -0.428571 -0.142857    0.00291545  26 t-inv F
  0.142857 -0.142857  0.285714    0.00291545  26 t-inv F
  0.142857 -0.285714 -0.142857    0.00291545  26 t-inv F
 -0.142857  0.142857  0.285714    0.00291545  26 t-inv F
 -0.285714  0.142857 -0.142857    0.00291545  26 t-inv F
 -0.428571 -0.285714 -0.142857    0.00291545  26 t-inv F
 -0.142857 -0.285714 -0.428571    0.00291545  26 t-inv F
  0.285714  0.142857 -0.142857    0.00291545  26 t-inv F
 -0.142857  0.142857 -0.285714    0.00291545  26 t-inv F
  0.285714 -0.142857  0.142857    0.00291545  26 t-inv F
 -0.142857 -0.285714  0.142857    0.00291545  26 t-inv F
 -0.142857 -0.428571 -0.285714    0.00291545  26 t-inv F
  0.428571  0.142857  0.285714    0.00291545  26 t-inv F
  0.285714  0.428571  0.142857    0.00291545  26 t-inv F
  0.142857  0.285714  0.428571    0.00291545  26 t-inv F
  0.142857 -0.428571  0.285714    0.00291545  27 t-inv F
  0.285714  0.142857 -0.428571    0.00291545  27 t-inv F
 -0.285714 -0.142857 -0.714286    0.00291545  27 t-inv F
  0.428571  0.714286  0.571429    0.00291545  27 t-inv F
 -0.142857 -0.571429  0.142857    0.00291545  27 t-inv F
  0.142857 -0.571429 -0.142857    0.00291545  27 t-inv F
 -0.714286 -0.142857 -0.285714    0.00291545  27 t-inv F
  0.571429  0.714286  0.428571    0.00291545  27 t-inv F
  0.571429  0.428571  0.714286    0.00291545  27 t-inv F
  0.142857 -0.142857 -0.571429    0.00291545  27 t-inv F
 -0.714286 -0.285714 -0.142857    0.00291545  27 t-inv F
 -0.142857  0.142857 -0.571429    0.00291545  27 t-inv F
 -0.285714 -0.714286 -0.142857    0.00291545  27 t-inv F
  0.428571  0.571429  0.714286    0.00291545  27 t-inv F
  0.714286  0.571429  0.428571    0.00291545  27 t-inv F
 -0.571429  0.142857 -0.142857    0.00291545  27 t-inv F
 -0.142857 -0.714286 -0.285714    0.00291545  27 t-inv F
 -0.571429 -0.142857  0.142857    0.00291545  27 t-inv F
 -0.142857 -0.285714 -0.714286    0.00291545  27 t-inv F
  0.714286  0.428571  0.571429    0.00291545  27 t-inv F
 -0.428571  0.142857  0.285714    0.00291545  27 t-inv F
  0.285714 -0.428571  0.142857    0.00291545  27 t-inv F
  0.142857  0.285714 -0.428571    0.00291545  27 t-inv F
  0.142857 -0.285714  0.285714    0.00291545  28 t-inv F
  0.285714  0.142857 -0.285714    0.00291545  28 t-inv F
 -0.285714 -0.142857 -0.571429    0.00291545  28 t-inv F
  0.285714  0.571429  0.428571    0.00291545  28 t-inv F
 -0.142857 -0.428571  0.142857    0.00291545  28 t-inv F
  0.142857 -0.428571 -0.142857    0.00291545  28 t-inv F
 -0.571429 -0.142857 -0.285714    0.00291545  28 t-inv F
  0.428571  0.571429  0.285714    0.00291545  28 t-inv F
  0.428571  0.285714  0.571429    0.00291545  28 t-inv F
  0.142857 -0.142857 -0.428571    0.00291545  28 t-inv F
 -0.571429 -0.285714 -0.142857    0.00291545  28 t-inv F
 -0.142857  0.142857 -0.428571    0.00291545  28 t-inv F
 -0.285714 -0.571429 -0.142857    0.00291545  28 t-inv F
  0.285714  0.428571  0.571429    0.00291545  28 t-inv F
  0.571429  0.428571  0.285714    0.00291545  28 t-inv F
 -0.428571  0.142857 -0.142857    0.00291545  28 t-inv F
 -0.142857 -0.571429 -0.285714    0.00291545  28 t-inv F
 -0.428571 -0.142857  0.142857    0.00291545  28 t-inv F
 -0.142857 -0.285714 -0.571429    0.00291545  28 t-inv F
  0.571429  0.285714  0.428571    0.00291545  28 t-inv F
 -0.285714  0.142857  0.285714    0.00291545  28 t-inv F
  0.285714 -0.285714  0.142857    0.00291545  28 t-inv F
  0.142857  0.285714 -0.285714    0.00291545  28 t-inv F
  0.142857 -0.428571  0.428571    0.00291545  29 t-inv F
  0.428571  0.142857 -0.428571    0.00291545  29 t-inv F
 -0.428571 -0.285714 -0.857143    0.00291545  29 t-inv F
  0.428571  0.857143  0.571429    0.00291545  29 t-inv F
 -0.142857 -0.571429  0.285714    0.00291545  29 t-inv F
  0.285714 -0.571429 -0.142857    0.00291545  29 t-inv F
 -0.857143 -0.285714 -0.428571    0.00291545  29 t-inv F
  0.571429  0.857143  0.428571    0.00291545  29 t-inv F
  0.571429  0.428571  0.857143    0.00291545  29 t-inv F
  0.285714 -0.142857 -0.571429    0.00291545  29 t-inv F
 -0.857143 -0.428571 -0.285714    0.00291545  29 t-inv F
 -0.142857  0.285714 -0.571429    0.00291545  29 t-inv F
 -0.428571 -0.857143 -0.285714    0.00291545  29 t-inv F
  0.428571  0.571429  0.857143    0.00291545  29 t-inv F
  0.857143  0.571429  0.428571    0.00291545  29 t-inv F
 -0.571429  0.285714 -0.142857    0.00291545  29 t-inv F
 -0.285714 -0.857143 -0.428571    0.00291545  29 t-inv F
 -0.571429 -0.142857  0.285714    0.00291545  29 t-inv F
 -0.285714 -0.428571 -0.857143    0.00291545  29 t-inv F
  0.857143  0.428571  0.571429    0.00291545  29 t-inv F
 -0.428571  0.142857  0.428571    0.00291545  29 t-inv F
  0.428571 -0.428571  0.142857    0.00291545  29 t-inv F
  0.142857  0.428571 -0.428571    0.00291545  29 t-inv F
  0.142857 -0.285714  0.428571    0.00291545  30 t-inv F
  0.428571  0.142857 -0.285714    0.00291545  30 t-inv F
 -0.428571 -0.285714 -0.714286    0.00291545  30 t-inv F
  0.285714  0.714286  0.428571    0.00291545  30 t-inv F
 -0.142857 -0.428571  0.285714    0.00291545  30 t-inv F
  0.285714 -0.428571 -0.142857    0.00291545  30 t-inv F
 -0.714286 -0.285714 -0.428571    0.00291545  30 t-inv F
  0.428571  0.714286  0.285714    0.00291545  30 t-inv F
  0.428571  0.285714  0.714286    0.00291545  30 t-inv F
  0.285714 -0.142857 -0.428571    0.00291545  30 t-inv F
 -0.714286 -0.428571 -0.285714    0.00291545  30 t-inv F
 -0.142857  0.285714 -0.428571    0.00291545  30 t-inv F
 -0.428571 -0.714286 -0.285714    0.00291545  30 t-inv F
  0.285714  0.428571  0.714286    0.00291545  30 t-inv F
  0.714286  0.428571  0.285714    0.00291545  30 t-inv F
 -0.428571  0.285714 -0.142857    0.00291545  30 t-inv F
 -0.285714 -0.714286 -0.428571    0.00291545  30 t-inv F
 -0.428571 -0.142857  0.285714    0.00291545  30 t-inv F
 -0.285714 -0.428571 -0.714286    0.00291545  30 t-inv F
  0.714286  0.285714  0.428571    0.00291545  30 t-inv F
 -0.285714  0.142857  0.428571    0.00291545  30 t-inv F
  0.428571 -0.285714  0.142857    0.00291545  30 t-inv F
  0.142857  0.428571 -0.285714    0.00291545  30 t-inv F

 ----------------------------------------------------------------------------- 
|                                                                             |
|           W    W    AA    RRRRR   N    N  II  N    N   GGGG   !!!           |
|           W    W   A  A   R    R  NN   N  II  NN   N  G    G  !!!           |
|           W    W  A    A  R    R  N N  N  II  N N  N  G       !!!           |
|           W WW W  AAAAAA  RRRRR   N  N N  II  N  N N  G  GGG   !            |
|           WW  WW  A    A  R   R   N   NN  II  N   NN  G    G                |
|           W    W  A    A  R    R  N    N  II  N    N   GGGG   !!!           |
|                                                                             |
|      The number of bands has been changed from the values supplied          |
|      in the INCAR file. This is a result of running the parallel version.   |
|      The orbitals not found in the WAVECAR file will be initialized with    |
|      random numbers, which is usually adequate. For correlated              |
|      calculations, however, you should redo the groundstate calculation.    |
|      I found NBANDS    =       15  now  NBANDS  =      21                   |
|                                                                             |
 ----------------------------------------------------------------------------- 



--------------------------------------------------------------------------------------------------------




 Dimension of arrays:
   k-points           NKPTS =    280   k-points in BZ     NKDIM =    593   number of bands    NBANDS=     21
   number of dos      NEDOS =    301   number of ions     NIONS =      2
   non local maximal  LDIM  =      5   non local SUM 2l+1 LMDIM =     13
   total plane-waves  NPLWV =  13824
   max r-space proj   IRMAX =      1   max aug-charges    IRDMAX=  28249
   dimension x,y,z NGX =    24 NGY =   24 NGZ =   24
   dimension x,y,z NGXF=    48 NGYF=   48 NGZF=   48
   support grid    NGXF=    48 NGYF=   48 NGZF=   48
   ions per type =               1   1
   NGX,Y,Z   is equivalent  to a cutoff of   9.31,  9.31,  9.31 a.u.
   NGXF,Y,Z  is equivalent  to a cutoff of  18.63, 18.63, 18.63 a.u.

 SYSTEM =  unknown system                          
 POSCAR =  In1 As1                                 

 Startparameter for this run:
   NWRITE =      2    write-flag & timer
   PREC   = n         normal or accurate (medium, high low for compatibility)
   ISTART =      1    job   : 0-new  1-cont  2-samecut
   ICHARG =      0    charge: 1-file 2-atom 10-const
   ISPIN  =      1    spin polarized calculation?
   LNONCOLLINEAR =      T non collinear calculations
   LSORBIT =      T    spin-orbit coupling
   INIWAV =      1    electr: 0-lowe 1-rand  2-diag
   LASPH  =      T    aspherical Exc in radial PAW
   METAGGA=      F    non-selfconsistent MetaGGA calc.

 Electronic Relaxation 1
   ENCUT  =  400.0 eV  29.40 Ry    5.42 a.u.   6.99  6.99  6.99*2*pi/ulx,y,z
   ENINI  =  400.0     initial cutoff
   ENAUG  =  462.8 eV  augmentation charge cutoff
   NELM   =    500;   NELMIN=  2; NELMDL=  0     # of ELM steps 
   EDIFF  = 0.1E-04   stopping-criterion for ELM
   LREAL  =      F    real-space projection
   NLSPLINE    = F    spline interpolate recip. space projectors
   LCOMPAT=      F    compatible to vasp.4.4
   GGA_COMPAT  = T    GGA compatible to vasp.4.4-vasp.4.6
   LMAXPAW     = -100 max onsite density
   LMAXMIX     =    2 max onsite mixed and CHGCAR
   VOSKOWN=      0    Vosko Wilk Nusair interpolation
   ROPT   =    0.00000   0.00000
 Ionic relaxation
   EDIFFG = 0.1E-03   stopping-criterion for IOM
   NSW    =      0    number of steps for IOM
   NBLOCK =      1;   KBLOCK =      1    inner block; outer block 
   IBRION =     -1    ionic relax: 0-MD 1-quasi-New 2-CG
   NFREE  =      0    steps in history (QN), initial steepest desc. (CG)
   ISIF   =      0    stress and relaxation
   IWAVPR =     10    prediction:  0-non 1-charg 2-wave 3-comb
   ISYM   =      3    0-nonsym 1-usesym 2-fastsym
   LCORR  =      T    Harris-Foulkes like correction to forces

   POTIM  = 0.5000    time-step for ionic-motion
   TEIN   =    0.0    initial temperature
   TEBEG  =    0.0;   TEEND  =   0.0 temperature during run
   SMASS  =  -3.00    Nose mass-parameter (am)
   estimated Nose-frequenzy (Omega)   =  0.10E-29 period in steps =****** mass=  -0.419E-27a.u.
   SCALEE = 1.0000    scale energy and forces
   NPACO  =    256;   APACO  = 16.0  distance and # of slots for P.C.
   PSTRESS=    0.0 pullay stress

  Mass of Ions in am
   POMASS = 114.82 74.92
  Ionic Valenz
   ZVAL   =   3.00  5.00
  Atomic Wigner-Seitz radii
   RWIGS  =  -1.00 -1.00
  virtual crystal weights 
   VCA    =   1.00  1.00
   NELECT =       8.0000    total number of electrons
   NUPDOWN=      -1.0000    fix difference up-down

 DOS related values:
   EMIN   =  10.00;   EMAX   =-10.00  energy-range for DOS
   EFERMI =   0.00
   ISMEAR =     0;   SIGMA  =   0.05  broadening in eV -4-tet -1-fermi 0-gaus

 Electronic relaxation 2 (details)
   IALGO  =     53    algorithm
   LDIAG  =      T    sub-space diagonalisation (order eigenvalues)
   LSUBROT=      F    optimize rotation matrix (better conditioning)
   TURBO    =      0    0=normal 1=particle mesh
   IRESTART =      0    0=no restart 2=restart with 2 vectors
   NREBOOT  =      0    no. of reboots
   NMIN     =      0    reboot dimension
   EREF     =   0.00    reference energy to select bands
   IMIX   =      4    mixing-type and parameters
     AMIX     =   0.40;   BMIX     =  3.00
     AMIX_MAG =   1.60;   BMIX_MAG =  3.00
     AMIN     =   0.01
     WC   =   100.;   INIMIX=   1;  MIXPRE=   1;  MAXMIX= -45

 Intra band minimization:
   WEIMIN = 0.0000     energy-eigenvalue tresh-hold
   EBREAK =  0.12E-06  absolut break condition
   DEPER  =   0.30     relativ break condition  

   TIME   =   0.40     timestep for ELM

  volume/ion in A,a.u.               =      27.80       187.58
  Fermi-wavevector in a.u.,A,eV,Ry     =   0.857894  1.621184 10.013641  0.735982
  Thomas-Fermi vector in A             =   1.975016
 
 Write flags
   LWAVE        =      F    write WAVECAR
   LDOWNSAMPLE  =      F    k-point downsampling of WAVECAR
   LCHARG       =      F    write CHGCAR
   LVTOT        =      F    write LOCPOT, total local potential
   LVHAR        =      F    write LOCPOT, Hartree potential only
   LELF         =      F    write electronic localiz. function (ELF)
   LORBIT       =     11    0 simple, 1 ext, 2 COOP (PROOUT), +10 PAW based schemes


 Dipole corrections
   LMONO  =      F    monopole corrections only (constant potential shift)
   LDIPOL =      F    correct potential (dipole corrections)
   IDIPOL =      0    1-x, 2-y, 3-z, 4-all directions 
   EPSILON=  1.0000000 bulk dielectric constant

 Exchange correlation treatment:
   GGA     =    --    GGA type
   LEXCH   =     8    internal setting for exchange type
   VOSKOWN=      0    Vosko Wilk Nusair interpolation
   EXXOEP  =     0    0=HF, 1=EXX-LHF (local Hartree Fock) 2=EXX OEP
   LHFCALC =     T    Hartree Fock is set to
   LSYMGRAD=     F    symmetrize gradient (conserves proper symmetry)
   PRECFOCK=fast      Normal, Fast or Accurate (Low or Medium for compatibility)
   LRHFCALC=     F    long range Hartree Fock
   LRSCOR  =     F    long range correlation only (use DFT for short range part)
   LTHOMAS =     F    Thomas Fermi screening in HF
   LMODELHF=     F    short range full HF, long range fraction AEXX
   ENCUT4O =  -1.0   cutoff for four orbital integrals eV
   LMAXFOCK=     4    L truncation for augmentation on plane wave grid
   LMAXFOCKAE=  -1    L truncation for all-electron charge restoration on plane wave grid
   NMAXFOCKAE=   1    number of basis functions for all-electron charge restoration
   LFOCKAEDFT=     F  apply the AE augmentation even for DFT
   NKREDX  =     1    reduce k-point grid by
   NKREDY  =     1    reduce k-point grid by
   NKREDZ  =     1    reduce k-point grid by
   SHIFTRED=     F    shift reduced grid of Gamma
   HFKIDENT=     F    idential grid for each k-point
   ODDONLY =     F    use only odd q-grid points
   EVENONLY=     F    use only even q-grid points
   HFALPHA =   -1.0000 decay constant for conv. correction
   MCALPHA =    0.0000 extent of test-charge in conv. correction in multipole expansion
   AEXX    =    0.2500 exact exchange contribution
   HFSCREEN=    0.2000 screening length (either q_TF or 0.3 A-1)
   HFSCREENC=   0.2000 screening length for correlation (either q_TF or 0.3 A-1)
   HFRCUT  =    0.0000 spherical cutoff for potential kernel
   ALDAX   =    0.7500 LDA exchange part
   AGGAX   =    0.7500 GGA exchange part
   ALDAC   =    1.0000 LDA correlation
   AGGAC   =    1.0000 GGA correlation
   ENCUTFOCK=  -1.0 apply spherical cutoff to Coloumb kernel
   NBANDSGWLOW=     1    first orbital included in HF term
   NBLOCK_FOCK=    64    blocking factor in FOCK_ACC
 Linear response parameters
   LEPSILON=     F    determine dielectric tensor
   LRPA    =     F    only Hartree local field effects (RPA)
   LNABLA  =     F    use nabla operator in PAW spheres
   LVEL    =     F    velocity operator in full k-point grid
   LINTERFAST=   F  fast interpolation
   KINTER  =     0    interpolate to denser k-point grid
   CSHIFT  =0.1000    complex shift for real part using Kramers Kronig
   OMEGAMAX=  -1.0    maximum frequency
   DEG_THRESHOLD= 0.2000000E-02 threshold for treating states as degnerate
   RTIME   =   -0.100 relaxation time in fs
  (WPLASMAI=    0.000 imaginary part of plasma frequency in eV, 0.658/RTIME)
   DFIELD  = 0.0000000 0.0000000 0.0000000 field for delta impulse in time
 
 Orbital magnetization related:
   ORBITALMAG=     F  switch on orbital magnetization
   LCHIMAG   =     F  perturbation theory with respect to B field
   DQ        =  0.001000  dq finite difference perturbation B field
   LLRAUG    =     F  two centre corrections for induced B field



--------------------------------------------------------------------------------------------------------


 Static calculation
 charge density and potential will be updated during run
 non collinear spin polarized calculation
 Conjugate gradient for all bands (Freysoldt, et al. PRB 79, 241103 (2009))
 perform sub-space diagonalisation
    before iterative eigenvector-optimisation
 modified Broyden-mixing scheme, WC =      100.0
 initial mixing is a Kerker type mixing with AMIX =  0.4000 and BMIX =      3.0000
 Hartree-type preconditioning will be used
 using additional bands           17
 reciprocal scheme for non local part
 use partial core corrections
 no Harris-corrections to forces 
 use gradient corrections 
 use of overlap-Matrix (Vanderbilt PP)
 Gauss-broadening in eV      SIGMA  =   0.05


--------------------------------------------------------------------------------------------------------


  energy-cutoff  :      400.00
  volume of cell :       55.59
      direct lattice vectors                 reciprocal lattice vectors
     0.000000000  3.029200000  3.029200000    -0.165060082  0.165060082  0.165060082
     3.029200000  0.000000000  3.029200000     0.165060082 -0.165060082  0.165060082
     3.029200000  3.029200000  0.000000000     0.165060082  0.165060082 -0.165060082

  length of vectors
     4.283935723  4.283935723  4.283935723     0.285892448  0.285892448  0.285892448


 
 old parameters found on file WAVECAR:
  energy-cutoff  :      400.00
  volume of cell :       55.59
      direct lattice vectors                 reciprocal lattice vectors
     0.000000000  3.029200000  3.029200000    -0.165060082  0.165060082  0.165060082
     3.029200000  0.000000000  3.029200000     0.165060082 -0.165060082  0.165060082
     3.029200000  3.029200000  0.000000000     0.165060082  0.165060082 -0.165060082

  length of vectors

 
 k-points in units of 2pi/SCALE and weight: Automatically generated mesh            
   0.00000000  0.00000000  0.00000000       0.003
  -0.02358001  0.02358001  0.02358001       0.012
  -0.04716002  0.04716002  0.04716002       0.012
  -0.07074004  0.07074004  0.07074004       0.012
   0.07074004 -0.07074004 -0.07074004       0.012
   0.04716002 -0.04716002 -0.04716002       0.012
   0.02358001 -0.02358001 -0.02358001       0.012
   0.00000000  0.00000000  0.04716002       0.017
  -0.02358001  0.02358001  0.07074004       0.035
  -0.04716002  0.04716002  0.09432005       0.035
   0.09432005 -0.09432005 -0.04716002       0.035
   0.07074004 -0.07074004 -0.02358001       0.035
   0.04716002 -0.04716002  0.00000000       0.035
   0.00000000  0.00000000  0.09432005       0.017
  -0.02358001  0.02358001  0.11790006       0.035
   0.11790006 -0.11790006 -0.02358001       0.035
   0.09432005 -0.09432005  0.00000000       0.035
   0.07074004 -0.07074004  0.02358001       0.035
   0.00000000  0.00000000  0.14148007       0.017
   0.14148007 -0.14148007  0.00000000       0.035
   0.11790006 -0.11790006  0.02358001       0.035
   0.09432005 -0.09432005  0.04716002       0.035
  -0.02358001  0.02358001 -0.11790006       0.035
  -0.04716002  0.04716002 -0.09432005       0.035
  -0.02358001  0.02358001 -0.07074004       0.035
  -0.00000000  0.04716002  0.09432005       0.070
   0.14148007 -0.09432005 -0.04716002       0.070
   0.11790006 -0.07074004 -0.02358001       0.070
   0.16506008 -0.11790006 -0.02358001       0.070
   0.14148007 -0.09432005  0.00000000       0.070
   0.00000000  0.00000000  0.00000000       0.000
   0.00000000  0.00336857  0.00000000       0.000
   0.00000000  0.00673715  0.00000000       0.000
   0.00000000  0.01010572  0.00000000       0.000
   0.00000000  0.01347429  0.00000000       0.000
   0.00000000  0.01684287  0.00000000       0.000
   0.00000000  0.02021144  0.00000000       0.000
   0.00000000  0.02358001  0.00000000       0.000
   0.00000000  0.02694858  0.00000000       0.000
   0.00000000  0.03031716  0.00000000       0.000
   0.00000000  0.03368573  0.00000000       0.000
   0.00000000  0.03705430  0.00000000       0.000
   0.00000000  0.04042288  0.00000000       0.000
   0.00000000  0.04379145  0.00000000       0.000
   0.00000000  0.04716002  0.00000000       0.000
   0.00000000  0.05052860  0.00000000       0.000
   0.00000000  0.05389717  0.00000000       0.000
   0.00000000  0.05726574  0.00000000       0.000
   0.00000000  0.06063432  0.00000000       0.000
   0.00000000  0.06400289  0.00000000       0.000
   0.00000000  0.06737146  0.00000000       0.000
   0.00000000  0.07074004  0.00000000       0.000
   0.00000000  0.07410861  0.00000000       0.000
   0.00000000  0.07747718  0.00000000       0.000
   0.00000000  0.08084575  0.00000000       0.000
   0.00000000  0.08421433  0.00000000       0.000
   0.00000000  0.08758290  0.00000000       0.000
   0.00000000  0.09095147  0.00000000       0.000
   0.00000000  0.09432005  0.00000000       0.000
   0.00000000  0.09768862  0.00000000       0.000
   0.00000000  0.10105719  0.00000000       0.000
   0.00000000  0.10442577  0.00000000       0.000
   0.00000000  0.10779434  0.00000000       0.000
   0.00000000  0.11116291  0.00000000       0.000
   0.00000000  0.11453149  0.00000000       0.000
   0.00000000  0.11790006  0.00000000       0.000
   0.00000000  0.12126863  0.00000000       0.000
   0.00000000  0.12463720  0.00000000       0.000
   0.00000000  0.12800578  0.00000000       0.000
   0.00000000  0.13137435  0.00000000       0.000
   0.00000000  0.13474292  0.00000000       0.000
   0.00000000  0.13811150  0.00000000       0.000
   0.00000000  0.14148007  0.00000000       0.000
   0.00000000  0.14484864  0.00000000       0.000
   0.00000000  0.14821722  0.00000000       0.000
   0.00000000  0.15158579  0.00000000       0.000
   0.00000000  0.15495436  0.00000000       0.000
   0.00000000  0.15832294  0.00000000       0.000
   0.00000000  0.16169151  0.00000000       0.000
   0.00000000  0.16506008  0.00000000       0.000
   0.00000000  0.16506008  0.00000000       0.000
   0.00168429  0.16506008  0.00000000       0.000
   0.00336857  0.16506008  0.00000000       0.000
   0.00505286  0.16506008  0.00000000       0.000
   0.00673715  0.16506008 -0.00000000       0.000
   0.00842143  0.16506008  0.00000000       0.000
   0.01010572  0.16506008  0.00000000       0.000
   0.01179001  0.16506008  0.00000000       0.000
   0.01347429  0.16506008  0.00000000       0.000
   0.01515858  0.16506008  0.00000000       0.000
   0.01684287  0.16506008  0.00000000       0.000
   0.01852715  0.16506008  0.00000000       0.000
   0.02021144  0.16506008  0.00000000       0.000
   0.02189573  0.16506008 -0.00000000       0.000
   0.02358001  0.16506008  0.00000000       0.000
   0.02526430  0.16506008  0.00000000       0.000
   0.02694858  0.16506008  0.00000000       0.000
   0.02863287  0.16506008  0.00000000       0.000
   0.03031716  0.16506008  0.00000000       0.000
   0.03200144  0.16506008  0.00000000       0.000
   0.03368573  0.16506008  0.00000000       0.000
   0.03537002  0.16506008  0.00000000       0.000
   0.03705430  0.16506008  0.00000000       0.000
   0.03873859  0.16506008  0.00000000       0.000
   0.04042288  0.16506008  0.00000000       0.000
   0.04210716  0.16506008 -0.00000000       0.000
   0.04379145  0.16506008 -0.00000000       0.000
   0.04547574  0.16506008  0.00000000       0.000
   0.04716002  0.16506008 -0.00000000       0.000
   0.04884431  0.16506008 -0.00000000       0.000
   0.05052860  0.16506008  0.00000000       0.000
   0.05221288  0.16506008  0.00000000       0.000
   0.05389717  0.16506008  0.00000000       0.000
   0.05558146  0.16506008  0.00000000       0.000
   0.05726574  0.16506008  0.00000000       0.000
   0.05895003  0.16506008 -0.00000000       0.000
   0.06063432  0.16506008  0.00000000       0.000
   0.06231860  0.16506008  0.00000000       0.000
   0.06400289  0.16506008  0.00000000       0.000
   0.06568718  0.16506008  0.00000000       0.000
   0.06737146  0.16506008  0.00000000       0.000
   0.06905575  0.16506008  0.00000000       0.000
   0.07074004  0.16506008  0.00000000       0.000
   0.07242432  0.16506008  0.00000000       0.000
   0.07410861  0.16506008 -0.00000000       0.000
   0.07579289  0.16506008  0.00000000       0.000
   0.07747718  0.16506008  0.00000000       0.000
   0.07916147  0.16506008  0.00000000       0.000
   0.08084575  0.16506008  0.00000000       0.000
   0.08253004  0.16506008  0.00000000       0.000
   0.08253004  0.16506008  0.00000000       0.000
   0.08253004  0.16337580  0.00168429       0.000
   0.08253004  0.16169151  0.00336857       0.000
   0.08253004  0.16000722  0.00505286       0.000
   0.08253004  0.15832294  0.00673715       0.000
   0.08253004  0.15663865  0.00842143       0.000
   0.08253004  0.15495436  0.01010572       0.000
   0.08253004  0.15327008  0.01179001       0.000
   0.08253004  0.15158579  0.01347429       0.000
   0.08253004  0.14990150  0.01515858       0.000
   0.08253004  0.14821722  0.01684287       0.000
   0.08253004  0.14653293  0.01852715       0.000
   0.08253004  0.14484864  0.02021144       0.000
   0.08253004  0.14316436  0.02189573       0.000
   0.08253004  0.14148007  0.02358001       0.000
   0.08253004  0.13979578  0.02526430       0.000
   0.08253004  0.13811150  0.02694858       0.000
   0.08253004  0.13642721  0.02863287       0.000
   0.08253004  0.13474292  0.03031716       0.000
   0.08253004  0.13305864  0.03200144       0.000
   0.08253004  0.13137435  0.03368573       0.000
   0.08253004  0.12969006  0.03537002       0.000
   0.08253004  0.12800578  0.03705430       0.000
   0.08253004  0.12632149  0.03873859       0.000
   0.08253004  0.12463720  0.04042288       0.000
   0.08253004  0.12295292  0.04210716       0.000
   0.08253004  0.12126863  0.04379145       0.000
   0.08253004  0.11958435  0.04547574       0.000
   0.08253004  0.11790006  0.04716002       0.000
   0.08253004  0.11621577  0.04884431       0.000
   0.08253004  0.11453149  0.05052860       0.000
   0.08253004  0.11284720  0.05221288       0.000
   0.08253004  0.11116291  0.05389717       0.000
   0.08253004  0.10947863  0.05558146       0.000
   0.08253004  0.10779434  0.05726574       0.000
   0.08253004  0.10611005  0.05895003       0.000
   0.08253004  0.10442577  0.06063432       0.000
   0.08253004  0.10274148  0.06231860       0.000
   0.08253004  0.10105719  0.06400289       0.000
   0.08253004  0.09937291  0.06568718       0.000
   0.08253004  0.09768862  0.06737146       0.000
   0.08253004  0.09600433  0.06905575       0.000
   0.08253004  0.09432005  0.07074004       0.000
   0.08253004  0.09263576  0.07242432       0.000
   0.08253004  0.09095147  0.07410861       0.000
   0.08253004  0.08926719  0.07579289       0.000
   0.08253004  0.08758290  0.07747718       0.000
   0.08253004  0.08589861  0.07916147       0.000
   0.08253004  0.08421433  0.08084575       0.000
   0.08253004  0.08253004  0.08253004       0.000
   0.08253004  0.08253004  0.08253004       0.000
   0.08084575  0.08084575  0.08084575       0.000
   0.07916147  0.07916147  0.07916147       0.000
   0.07747718  0.07747718  0.07747718       0.000
   0.07579289  0.07579289  0.07579289       0.000
   0.07410861  0.07410861  0.07410861       0.000
   0.07242432  0.07242432  0.07242432       0.000
   0.07074004  0.07074004  0.07074004       0.000
   0.06905575  0.06905575  0.06905575       0.000
   0.06737146  0.06737146  0.06737146       0.000
   0.06568718  0.06568718  0.06568718       0.000
   0.06400289  0.06400289  0.06400289       0.000
   0.06231860  0.06231860  0.06231860       0.000
   0.06063432  0.06063432  0.06063432       0.000
   0.05895003  0.05895003  0.05895003       0.000
   0.05726574  0.05726574  0.05726574       0.000
   0.05558146  0.05558146  0.05558146       0.000
   0.05389717  0.05389717  0.05389717       0.000
   0.05221288  0.05221288  0.05221288       0.000
   0.05052860  0.05052860  0.05052860       0.000
   0.04884431  0.04884431  0.04884431       0.000
   0.04716002  0.04716002  0.04716002       0.000
   0.04547574  0.04547574  0.04547574       0.000
   0.04379145  0.04379145  0.04379145       0.000
   0.04210716  0.04210716  0.04210716       0.000
   0.04042288  0.04042288  0.04042288       0.000
   0.03873859  0.03873859  0.03873859       0.000
   0.03705430  0.03705430  0.03705430       0.000
   0.03537002  0.03537002  0.03537002       0.000
   0.03368573  0.03368573  0.03368573       0.000
   0.03200144  0.03200144  0.03200144       0.000
   0.03031716  0.03031716  0.03031716       0.000
   0.02863287  0.02863287  0.02863287       0.000
   0.02694858  0.02694858  0.02694858       0.000
   0.02526430  0.02526430  0.02526430       0.000
   0.02358001  0.02358001  0.02358001       0.000
   0.02189573  0.02189573  0.02189573       0.000
   0.02021144  0.02021144  0.02021144       0.000
   0.01852715  0.01852715  0.01852715       0.000
   0.01684287  0.01684287  0.01684287       0.000
   0.01515858  0.01515858  0.01515858       0.000
   0.01347429  0.01347429  0.01347429       0.000
   0.01179001  0.01179001  0.01179001       0.000
   0.01010572  0.01010572  0.01010572       0.000
   0.00842143  0.00842143  0.00842143       0.000
   0.00673715  0.00673715  0.00673715       0.000
   0.00505286  0.00505286  0.00505286       0.000
   0.00336857  0.00336857  0.00336857       0.000
   0.00168429  0.00168429  0.00168429       0.000
   0.00000000  0.00000000  0.00000000       0.000
   0.00000000  0.00000000  0.00000000       0.000
   0.00252643  0.00252643  0.00000000       0.000
   0.00505286  0.00505286  0.00000000       0.000
   0.00757929  0.00757929  0.00000000       0.000
   0.01010572  0.01010572  0.00000000       0.000
   0.01263215  0.01263215  0.00000000       0.000
   0.01515858  0.01515858  0.00000000       0.000
   0.01768501  0.01768501  0.00000000       0.000
   0.02021144  0.02021144  0.00000000       0.000
   0.02273787  0.02273787  0.00000000       0.000
   0.02526430  0.02526430  0.00000000       0.000
   0.02779073  0.02779073  0.00000000       0.000
   0.03031716  0.03031716  0.00000000       0.000
   0.03284359  0.03284359  0.00000000       0.000
   0.03537002  0.03537002  0.00000000       0.000
   0.03789645  0.03789645  0.00000000       0.000
   0.04042288  0.04042288  0.00000000       0.000
   0.04294931  0.04294931  0.00000000       0.000
   0.04547574  0.04547574  0.00000000       0.000
   0.04800217  0.04800217  0.00000000       0.000
   0.05052860  0.05052860  0.00000000       0.000
   0.05305503  0.05305503  0.00000000       0.000
   0.05558146  0.05558146  0.00000000       0.000
   0.05810789  0.05810789  0.00000000       0.000
   0.06063432  0.06063432  0.00000000       0.000
   0.06316075  0.06316075 -0.00000000       0.000
   0.06568718  0.06568718 -0.00000000       0.000
   0.06821361  0.06821361 -0.00000000       0.000
   0.07074004  0.07074004 -0.00000000       0.000
   0.07326646  0.07326646 -0.00000000       0.000
   0.07579289  0.07579289 -0.00000000       0.000
   0.07831932  0.07831932 -0.00000000       0.000
   0.08084575  0.08084575 -0.00000000       0.000
   0.08337218  0.08337218 -0.00000000       0.000
   0.08589861  0.08589861 -0.00000000       0.000
   0.08842504  0.08842504 -0.00000000       0.000
   0.09095147  0.09095147 -0.00000000       0.000
   0.09347790  0.09347790  0.00000000       0.000
   0.09600433  0.09600433  0.00000000       0.000
   0.09853076  0.09853076  0.00000000       0.000
   0.10105719  0.10105719  0.00000000       0.000
   0.10358362  0.10358362  0.00000000       0.000
   0.10611005  0.10611005  0.00000000       0.000
   0.10863648  0.10863648  0.00000000       0.000
   0.11116291  0.11116291  0.00000000       0.000
   0.11368934  0.11368934  0.00000000       0.000
   0.11621577  0.11621577  0.00000000       0.000
   0.11874220  0.11874220  0.00000000       0.000
   0.12126863  0.12126863  0.00000000       0.000
   0.12379506  0.12379506  0.00000000       0.000
 
 k-points in reciprocal lattice and weights: Automatically generated mesh            
   0.00000000  0.00000000  0.00000000       0.003
   0.14285714  0.00000000  0.00000000       0.012
   0.28571429  0.00000000  0.00000000       0.012
   0.42857143  0.00000000  0.00000000       0.012
  -0.42857143  0.00000000  0.00000000       0.012
  -0.28571429  0.00000000  0.00000000       0.012
  -0.14285714  0.00000000  0.00000000       0.012
   0.14285714  0.14285714  0.00000000       0.017
   0.28571429  0.14285714  0.00000000       0.035
[...]
  0.000   0.000   0.000   0.000  -0.000  -0.000   0.000  -0.000  -0.000  -0.000  -0.000  -0.000   0.000  -0.000  -0.000  -0.000
 -0.000  -0.000  -0.000  -0.000  -0.002   0.000  -0.000   0.000  -0.000   0.000  -0.002   0.000  -0.000   0.000  -0.000   0.000
  0.000  -0.000   0.000  -0.000  -0.000  -0.000  -0.000   0.000   0.000   0.000  -0.000  -0.000  -0.000   0.000   0.000   0.000
 pseudopotential strength for first ion, spin component:           2
 -0.000   0.000  -0.000   0.000   0.000   0.000   0.000  -0.000  -0.000   0.000   0.000   0.000   0.000  -0.000  -0.000   0.000
 -0.000   0.000  -0.000   0.000   0.000   0.000   0.000  -0.000  -0.000   0.000   0.000   0.000   0.000  -0.000  -0.000   0.000
 -0.000   0.000  -0.000   0.000  -0.000   0.000  -0.000  -0.093   0.000   0.000  -0.000   0.000  -0.000  -0.164   0.000   0.000
  0.000   0.000   0.000   0.000  -0.000   0.093  -0.000   0.000  -0.093  -0.000  -0.000   0.164  -0.000   0.000  -0.164  -0.000
 -0.000  -0.000  -0.000  -0.000   0.000   0.000   0.093   0.000  -0.000   0.000   0.000   0.000   0.164   0.000  -0.000   0.000
 -0.000   0.000  -0.000   0.000  -0.000   0.000  -0.000  -0.164   0.000   0.000  -0.000   0.000  -0.000  -0.290   0.000   0.000
  0.000   0.000   0.000   0.000  -0.000   0.164  -0.000   0.000  -0.164  -0.000  -0.000   0.290  -0.000   0.000  -0.290  -0.000
 -0.000  -0.000  -0.000  -0.000   0.000   0.000   0.164   0.000  -0.000   0.000   0.000   0.000   0.290   0.000  -0.000   0.000
  0.000   0.000   0.000   0.000  -0.000   0.000  -0.000   0.000  -0.000   0.000  -0.000   0.000  -0.000   0.000  -0.000   0.000
 -0.000  -0.000  -0.000  -0.000   0.000   0.000   0.000   0.000  -0.000   0.000   0.000   0.000   0.000   0.000  -0.000   0.000
 -0.000   0.000  -0.000   0.000  -0.000  -0.000   0.000  -0.000   0.000   0.000  -0.000  -0.000   0.000  -0.000   0.000   0.000
  0.000   0.000   0.000   0.000  -0.000   0.000   0.000  -0.000   0.000  -0.000  -0.000   0.000   0.000  -0.000   0.000  -0.000
 -0.000  -0.000  -0.000  -0.000   0.000  -0.000   0.000  -0.000   0.000   0.000   0.000  -0.000   0.000  -0.000   0.000   0.000
 pseudopotential strength for first ion, spin component:           3
 -0.000  -0.000  -0.000  -0.000  -0.000  -0.000   0.000  -0.000  -0.000   0.000  -0.000  -0.000   0.000  -0.000  -0.000   0.000
 -0.000  -0.000  -0.000  -0.000  -0.000  -0.000   0.000  -0.000  -0.000   0.000  -0.000  -0.000   0.000  -0.000  -0.000   0.000
  0.000  -0.000   0.000  -0.000  -0.000  -0.000  -0.000  -0.093   0.000  -0.000  -0.000  -0.000  -0.000  -0.164   0.000  -0.000
  0.000   0.000   0.000   0.000  -0.000   0.093  -0.000  -0.000   0.093  -0.000  -0.000   0.164  -0.000  -0.000   0.164  -0.000
 -0.000  -0.000  -0.000  -0.000   0.000  -0.000  -0.093   0.000  -0.000  -0.000   0.000  -0.000  -0.164   0.000  -0.000  -0.000
  0.000  -0.000   0.000  -0.000  -0.000  -0.000  -0.000  -0.164   0.000  -0.000  -0.000  -0.000  -0.000  -0.290   0.000  -0.000
  0.000   0.000   0.000   0.000  -0.000   0.164  -0.000  -0.000   0.164  -0.000  -0.000   0.290  -0.000  -0.000   0.290  -0.000
 -0.000  -0.000  -0.000  -0.000   0.000  -0.000  -0.164   0.000  -0.000  -0.000   0.000  -0.000  -0.290   0.000  -0.000  -0.000
 -0.000   0.000  -0.000   0.000  -0.000   0.000  -0.000  -0.000   0.000   0.000  -0.000   0.000  -0.000  -0.000   0.000   0.000
 -0.000   0.000  -0.000   0.000   0.000   0.000  -0.000  -0.000  -0.000  -0.000   0.000   0.000  -0.000  -0.000  -0.000  -0.000
 -0.000  -0.000  -0.000  -0.000   0.000  -0.000   0.000   0.000   0.000   0.000   0.000  -0.000   0.000   0.000   0.000   0.000
 -0.000   0.000  -0.000   0.000  -0.000  -0.000  -0.000  -0.000   0.000   0.000  -0.000  -0.000  -0.000  -0.000   0.000   0.000
 -0.000   0.000  -0.000   0.000  -0.000   0.000  -0.000  -0.000  -0.000   0.000  -0.000   0.000  -0.000  -0.000  -0.000   0.000
 pseudopotential strength for first ion, spin component:           4
 19.677  -0.000  23.544   0.000   0.000   0.000  -0.000  -0.000  -0.000   0.000   0.000   0.000  -0.000  -0.000  -0.000   0.000
 23.544  -0.000  28.183   0.000   0.000   0.000  -0.000  -0.000  -0.000   0.000   0.000   0.000  -0.000  -0.000  -0.000   0.000
  0.000  -0.000   0.000  -0.000   3.593  -0.000  -0.000   0.000  -0.000  -0.093   6.191  -0.000  -0.000   0.000  -0.000  -0.164
 -0.000   0.000  -0.000   0.000  -0.000  -0.000   3.593  -0.000  -0.000  -0.000  -0.000  -0.000   6.191  -0.000  -0.000  -0.000
 -0.000  -0.000  -0.000  -0.000  -0.000   0.093  -0.000   0.000   3.593  -0.000  -0.000   0.164  -0.000   0.000   6.191   0.000
  0.000  -0.000   0.000  -0.000   6.191   0.000  -0.000   0.000  -0.000  -0.164  10.713   0.000  -0.000   0.000  -0.000  -0.290
 -0.000   0.000  -0.000   0.000  -0.000  -0.000   6.191   0.000  -0.000  -0.000  -0.000  -0.000  10.713   0.000  -0.000  -0.000
 -0.000  -0.000  -0.000  -0.000  -0.000   0.164  -0.000   0.000   6.191  -0.000  -0.000   0.290  -0.000   0.000  10.713   0.000
 -0.000   0.000  -0.000   0.000  -0.000  -0.000  -0.002  -0.000   0.000  -0.000  -0.000  -0.000  -0.002  -0.000   0.000  -0.000
 -0.000   0.000  -0.000   0.000  -0.000   0.000   0.000  -0.000  -0.002  -0.000  -0.000   0.000   0.000  -0.000  -0.002  -0.000
  0.000  -0.000   0.000  -0.000  -0.000   0.000   0.000   0.000  -0.000   0.000  -0.000   0.000   0.000   0.000  -0.000   0.000
 -0.000  -0.000  -0.000  -0.000  -0.002   0.000  -0.000  -0.000  -0.000  -0.000  -0.002   0.000  -0.000  -0.000  -0.000  -0.000
  0.000   0.000   0.000   0.000  -0.000   0.000   0.000  -0.000   0.000  -0.000  -0.000   0.000   0.000  -0.000   0.000  -0.000
 total augmentation occupancy for first ion, spin component:           1
 10.293  -5.819  -0.000   0.000   0.000   0.000  -0.000  -0.000  -0.000  -0.000   0.000  -0.000   0.000
 -5.819   3.418   0.000  -0.000  -0.000  -0.000   0.000   0.000   0.000   0.000  -0.000   0.000  -0.000
 -0.000   0.000   3.530   0.000   0.000  -1.067  -0.000  -0.000  -0.000   0.000   0.000  -0.491  -0.000
  0.000  -0.000   0.000   3.530   0.000  -0.000  -1.067  -0.000  -0.491  -0.000  -0.000   0.000   0.000
  0.000  -0.000   0.000   0.000   3.530   0.000  -0.000  -1.067   0.000  -0.491  -0.000  -0.000  -0.000
  0.000  -0.000  -1.067  -0.000   0.000   0.336   0.000   0.000   0.000  -0.000  -0.000   0.145   0.000
 -0.000   0.000  -0.000  -1.067  -0.000   0.000   0.336   0.000   0.145   0.000   0.000   0.000  -0.000
 -0.000   0.000  -0.000  -0.000  -1.067   0.000   0.000   0.336  -0.000   0.145   0.000   0.000   0.000
 -0.000   0.000  -0.000  -0.491   0.000   0.000   0.145  -0.000   0.114   0.000  -0.000  -0.000  -0.000
 -0.000   0.000   0.000  -0.000  -0.491  -0.000   0.000   0.145   0.000   0.114   0.000  -0.000   0.000
  0.000  -0.000   0.000  -0.000  -0.000  -0.000   0.000   0.000  -0.000   0.000   0.030  -0.000  -0.000
 -0.000   0.000  -0.491   0.000  -0.000   0.145   0.000   0.000  -0.000  -0.000  -0.000   0.114   0.000
  0.000  -0.000  -0.000   0.000  -0.000   0.000  -0.000   0.000  -0.000   0.000  -0.000   0.000   0.030
 total augmentation occupancy for first ion, spin component:           2
  0.000  -0.000   0.000   0.000  -0.000  -0.000  -0.000   0.000  -0.000  -0.000   0.000  -0.000   0.000
 -0.000   0.000  -0.000  -0.000  -0.000   0.000   0.000  -0.000   0.000   0.000  -0.000   0.000  -0.000
  0.000  -0.000  -0.000  -0.000  -0.000   0.000  -0.000   0.000   0.000  -0.000   0.000  -0.000  -0.000
  0.000  -0.000  -0.000   0.000  -0.000  -0.000  -0.000   0.000  -0.000  -0.000  -0.000  -0.000  -0.000
 -0.000  -0.000  -0.000  -0.000   0.000   0.000   0.000  -0.000  -0.000   0.000  -0.000  -0.000   0.000
 -0.000   0.000   0.000  -0.000   0.000  -0.000   0.000  -0.000  -0.000   0.000  -0.000  -0.000   0.000
 -0.000   0.000  -0.000  -0.000   0.000   0.000   0.000  -0.000   0.000   0.000   0.000  -0.000   0.000
  0.000  -0.000   0.000   0.000  -0.000  -0.000  -0.000   0.000   0.000  -0.000   0.000   0.000  -0.000
 -0.000   0.000   0.000  -0.000  -0.000  -0.000   0.000   0.000   0.000   0.000   0.000  -0.000   0.000
 -0.000   0.000  -0.000  -0.000   0.000   0.000   0.000  -0.000   0.000  -0.000   0.000   0.000  -0.000
  0.000  -0.000   0.000  -0.000  -0.000  -0.000   0.000   0.000   0.000   0.000  -0.000  -0.000   0.000
 -0.000   0.000  -0.000  -0.000  -0.000  -0.000  -0.000   0.000  -0.000   0.000  -0.000   0.000  -0.000
  0.000  -0.000  -0.000  -0.000   0.000   0.000   0.000  -0.000   0.000  -0.000   0.000  -0.000   0.000
 total augmentation occupancy for first ion, spin component:           3
  0.000  -0.000  -0.000   0.000   0.000   0.000  -0.000  -0.000  -0.000  -0.000   0.000  -0.000   0.000
 -0.000   0.000  -0.000  -0.000  -0.000  -0.000   0.000   0.000   0.000   0.000  -0.000   0.000  -0.000
 -0.000  -0.000   0.000  -0.000   0.000  -0.000   0.000   0.000  -0.000  -0.000   0.000   0.000  -0.000
  0.000  -0.000  -0.000   0.000  -0.000   0.000  -0.000  -0.000  -0.000   0.000  -0.000  -0.000   0.000
  0.000  -0.000   0.000  -0.000   0.000   0.000   0.000   0.000  -0.000  -0.000   0.000  -0.000   0.000
  0.000  -0.000  -0.000   0.000   0.000   0.000  -0.000  -0.000   0.000   0.000  -0.000  -0.000   0.000
 -0.000   0.000   0.000  -0.000   0.000  -0.000   0.000   0.000   0.000  -0.000   0.000   0.000  -0.000
 -0.000   0.000   0.000  -0.000   0.000  -0.000   0.000  -0.000  -0.000  -0.000  -0.000   0.000  -0.000
 -0.000   0.000  -0.000  -0.000  -0.000   0.000   0.000  -0.000   0.000  -0.000   0.000   0.000  -0.000
 -0.000   0.000  -0.000   0.000  -0.000   0.000  -0.000  -0.000  -0.000   0.000  -0.000   0.000   0.000
  0.000  -0.000   0.000  -0.000   0.000  -0.000   0.000  -0.000   0.000  -0.000  -0.000  -0.000  -0.000
 -0.000   0.000   0.000  -0.000  -0.000  -0.000   0.000   0.000   0.000   0.000  -0.000  -0.000   0.000
  0.000  -0.000  -0.000   0.000   0.000   0.000  -0.000  -0.000  -0.000   0.000  -0.000   0.000   0.000
 total augmentation occupancy for first ion, spin component:           4
  0.000  -0.000   0.000  -0.000   0.000  -0.000   0.000  -0.000  -0.000  -0.000  -0.000  -0.000  -0.000
 -0.000   0.000  -0.000  -0.000  -0.000   0.000  -0.000   0.000   0.000   0.000   0.000   0.000   0.000
  0.000  -0.000   0.000  -0.000   0.000  -0.000   0.000  -0.000  -0.000  -0.000  -0.000  -0.000  -0.000
 -0.000  -0.000  -0.000   0.000  -0.000   0.000  -0.000   0.000   0.000  -0.000   0.000  -0.000   0.000
  0.000  -0.000   0.000  -0.000   0.000  -0.000   0.000  -0.000  -0.000  -0.000  -0.000   0.000   0.000
 -0.000   0.000  -0.000   0.000  -0.000   0.000  -0.000   0.000   0.000  -0.000   0.000   0.000   0.000
  0.000  -0.000   0.000  -0.000   0.000  -0.000   0.000  -0.000  -0.000  -0.000  -0.000   0.000  -0.000
 -0.000   0.000  -0.000   0.000  -0.000   0.000  -0.000  -0.000   0.000   0.000   0.000  -0.000  -0.000
 -0.000   0.000  -0.000   0.000  -0.000   0.000  -0.000   0.000  -0.000   0.000   0.000   0.000  -0.000
 -0.000   0.000  -0.000  -0.000  -0.000  -0.000  -0.000   0.000   0.000   0.000   0.000  -0.000  -0.000
 -0.000   0.000  -0.000   0.000  -0.000   0.000  -0.000   0.000   0.000   0.000  -0.000   0.000   0.000
 -0.000   0.000  -0.000  -0.000   0.000   0.000   0.000  -0.000   0.000  -0.000   0.000   0.000   0.000
 -0.000   0.000  -0.000   0.000   0.000   0.000  -0.000  -0.000  -0.000  -0.000   0.000   0.000  -0.000


------------------------ aborting loop because EDIFF is reached ----------------------------------------


 


 total charge     
 
# of ion       s       p       d       tot
------------------------------------------
    1        1.213   1.464   0.230   2.906
    2        1.230   1.611   0.019   2.860
--------------------------------------------------
tot          2.442   3.075   0.249   5.766
 


 magnetization (x)
 
# of ion       s       p       d       tot
------------------------------------------
    1        0.002  -0.003  -0.000  -0.001
    2       -0.001   0.003  -0.000   0.002
--------------------------------------------------
tot          0.002  -0.001  -0.000   0.001
 


 magnetization (y)
 
# of ion       s       p       d       tot
------------------------------------------
    1        0.005  -0.006  -0.001  -0.002
    2       -0.002   0.006   0.000   0.004
--------------------------------------------------
tot          0.003   0.000  -0.001   0.003
 


 magnetization (z)
 
# of ion       s       p       d       tot
------------------------------------------
    1       -0.000   0.000  -0.000   0.000
    2        0.000   0.000   0.000   0.000
--------------------------------------------------
tot         -0.000   0.000  -0.000   0.000
 
    FORLOC:  cpu time    0.0051: real time    0.0051
    FORHF :  cpu time  658.0200: real time  658.2328
    FORNL :  cpu time    0.2877: real time    0.2877
    FORCOR:  cpu time    7.3684: real time    7.3719
    OFIELD:  cpu time    0.0002: real time    0.0002

 VOLUME and BASIS-vectors are now :
 -----------------------------------------------------------------------------
  energy-cutoff  :      400.00
  volume of cell :       55.59
      direct lattice vectors                 reciprocal lattice vectors
     0.000000000  3.029200000  3.029200000    -0.165060082  0.165060082  0.165060082
     3.029200000  0.000000000  3.029200000     0.165060082 -0.165060082  0.165060082
     3.029200000  3.029200000  0.000000000     0.165060082  0.165060082 -0.165060082

  length of vectors
     4.283935723  4.283935723  4.283935723     0.285892448  0.285892448  0.285892448


 FORCES acting on ions:
    Electron-Ion                     Ewald-Force                    Non-Local-Force
 -----------------------------------------------------------------------------------------------
   0.562E-06 -.309E-06 0.622E-06   -.437E-14 -.349E-14 -.380E-14   -.555E-16 -.118E-15 -.114E-15
   -.196E-05 0.281E-05 -.631E-06   0.437E-14 0.340E-14 0.349E-14   -.694E-16 -.486E-16 -.243E-16
 -----------------------------------------------------------------------------------------------
   -.153E-05 0.252E-05 -.838E-07   -.623E-17 -.883E-16 -.308E-15   -.125E-15 -.167E-15 -.139E-15
 
 
 POSITION                                       TOTAL-FORCE (eV/Angst)
 -----------------------------------------------------------------------------------
      0.00000      0.00000      0.00000        -0.000000     -0.000000     -0.000000
      4.54380      4.54380      4.54380         0.000000      0.000000      0.000000
 -----------------------------------------------------------------------------------
    total drift:                               -0.000002      0.000003     -0.000000


--------------------------------------------------------------------------------------------------------



  FREE ENERGIE OF THE ION-ELECTRON SYSTEM (eV)
  ---------------------------------------------------
  free  energy   TOTEN  =        -9.26204681 eV

  energy  without entropy=       -9.26204681  energy(sigma->0) =       -9.26204681
 


--------------------------------------------------------------------------------------------------------


    POTLOK:  cpu time    7.6485: real time    7.6503


--------------------------------------------------------------------------------------------------------


     LOOP+:  cpu time 7986.0424: real time 7991.7544
    4ORBIT:  cpu time    0.0000: real time    0.0000

 Spin-Orbit-Coupling matrix elements

 Ion:    1  E_soc:     -0.0316252
 l=   1
     0.0000000    -0.0050689    -0.0050689
    -0.0050689     0.0000000    -0.0050689
    -0.0050689    -0.0050689     0.0000000
 l=   2
     0.0000000    -0.0000779     0.0000000    -0.0000779    -0.0001240
    -0.0000779     0.0000000    -0.0000930    -0.0000779    -0.0000310
     0.0000000    -0.0000930     0.0000000    -0.0000930     0.0000000
    -0.0000779    -0.0000779    -0.0000930     0.0000000    -0.0000310
    -0.0001240    -0.0000310     0.0000000    -0.0000310     0.0000000
 l=   3
     0.0000000     0.0000000     0.0000000     0.0000000     0.0000000     0.0000000     0.0000000
     0.0000000     0.0000000     0.0000000     0.0000000     0.0000000     0.0000000     0.0000000
     0.0000000     0.0000000     0.0000000     0.0000000     0.0000000     0.0000000     0.0000000
     0.0000000     0.0000000     0.0000000     0.0000000     0.0000000     0.0000000     0.0000000
     0.0000000     0.0000000     0.0000000     0.0000000     0.0000000     0.0000000     0.0000000
     0.0000000     0.0000000     0.0000000     0.0000000     0.0000000     0.0000000     0.0000000
     0.0000000     0.0000000     0.0000000     0.0000000     0.0000000     0.0000000     0.0000000

 Ion:    2  E_soc:     -0.0247000
 l=   1
     0.0000000    -0.0041169    -0.0041169
    -0.0041169     0.0000000    -0.0041169
    -0.0041169    -0.0041169     0.0000000
 l=   2
     0.0000000    -0.0000005     0.0000000    -0.0000005     0.0000008
    -0.0000005     0.0000000     0.0000006    -0.0000005     0.0000002
     0.0000000     0.0000006     0.0000000     0.0000006     0.0000000
    -0.0000005    -0.0000005     0.0000006     0.0000000     0.0000002
     0.0000008     0.0000002     0.0000000     0.0000002     0.0000000
 l=   3
     0.0000000     0.0000000     0.0000000     0.0000000     0.0000000     0.0000000     0.0000000
     0.0000000     0.0000000     0.0000000     0.0000000     0.0000000     0.0000000     0.0000000
     0.0000000     0.0000000     0.0000000     0.0000000     0.0000000     0.0000000     0.0000000
     0.0000000     0.0000000     0.0000000     0.0000000     0.0000000     0.0000000     0.0000000
     0.0000000     0.0000000     0.0000000     0.0000000     0.0000000     0.0000000     0.0000000
     0.0000000     0.0000000     0.0000000     0.0000000     0.0000000     0.0000000     0.0000000
     0.0000000     0.0000000     0.0000000     0.0000000     0.0000000     0.0000000     0.0000000
 


 total charge     
 
# of ion       s       p       d       tot
------------------------------------------
    1        1.213   1.464   0.230   2.906
    2        1.230   1.611   0.019   2.860
--------------------------------------------------
tot          2.442   3.075   0.249   5.766
 


 magnetization (x)
 
# of ion       s       p       d       tot
------------------------------------------
    1        0.002  -0.003  -0.000  -0.001
    2       -0.001   0.003  -0.000   0.002
--------------------------------------------------
tot          0.002  -0.001  -0.000   0.001
 


 magnetization (y)
 
# of ion       s       p       d       tot
------------------------------------------
    1        0.005  -0.006  -0.001  -0.002
    2       -0.002   0.006   0.000   0.004
--------------------------------------------------
tot          0.003   0.000  -0.001   0.003
 


 magnetization (z)
 
# of ion       s       p       d       tot
------------------------------------------
    1       -0.000   0.000  -0.000   0.000
    2        0.000   0.000   0.000   0.000
--------------------------------------------------
tot         -0.000   0.000  -0.000   0.000
 

 total amount of memory used by VASP MPI-rank0   109906. kBytes
=======================================================================

   base      :      30000. kBytes
   nonl-proj :      31000. kBytes
   fftplans  :        953. kBytes
   grid      :       3096. kBytes
   one-center:         32. kBytes
   HF        :         33. kBytes
   nonlr-proj:        764. kBytes
   wavefun   :      44028. kBytes
 
  
  
 General timing and accounting informations for this job:
 ========================================================
  
                  Total CPU time used (sec):     8517.304
                            User time (sec):     8317.520
                          System time (sec):      199.784
                         Elapsed time (sec):     8526.304
  
                   Maximum memory used (kb):      278076.
                   Average memory used (kb):           0.
  
                          Minor page faults:       158585
                          Major page faults:            1
                 Voluntary context switches:         3079
