 running on   56 total cores
 distrk:  each k-point on   14 cores,    4 groups
 distr:  one band on    2 cores,    7 groups
 using from now: INCAR     
 vasp.5.4.4.18Apr17-6-g9f103f2a35 (build Nov 08 2017 12:56:59) complex          
  
 POSCAR found type information on POSCAR  In As
 POSCAR found :  2 types and       2 ions
 scaLAPACK will be used

 ----------------------------------------------------------------------------- 
|                                                                             |
|           W    W    AA    RRRRR   N    N  II  N    N   GGGG   !!!           |
|           W    W   A  A   R    R  NN   N  II  NN   N  G    G  !!!           |
|           W    W  A    A  R    R  N N  N  II  N N  N  G       !!!           |
|           W WW W  AAAAAA  RRRRR   N  N N  II  N  N N  G  GGG   !            |
|           WW  WW  A    A  R   R   N   NN  II  N   NN  G    G                |
|           W    W  A    A  R    R  N    N  II  N    N   GGGG   !!!           |
|                                                                             |
|      For optimal performance we recommend to set                            |
|        NCORE= 4 - approx SQRT( number of cores)                             |
|      NCORE specifies how many cores store one orbital (NPAR=cpu/NCORE).     |
|      This setting can  greatly improve the performance of VASP for DFT.     |
|      The default,   NCORE=1            might be grossly inefficient         |
|      on modern multi-core architectures or massively parallel machines.     |
|      Do your own testing !!!!                                               |
|      Unfortunately you need to use the default for GW and RPA calculations. |
|      (for HF NCORE is supported but not extensively tested yet)             |
|                                                                             |
 ----------------------------------------------------------------------------- 


 ----------------------------------------------------------------------------- 
|                                                                             |
|           W    W    AA    RRRRR   N    N  II  N    N   GGGG   !!!           |
|           W    W   A  A   R    R  NN   N  II  NN   N  G    G  !!!           |
|           W    W  A    A  R    R  N N  N  II  N N  N  G       !!!           |
|           W WW W  AAAAAA  RRRRR   N  N N  II  N  N N  G  GGG   !            |
|           WW  WW  A    A  R   R   N   NN  II  N   NN  G    G                |
|           W    W  A    A  R    R  N    N  II  N    N   GGGG   !!!           |
|                                                                             |
|      You have enabled k-point parallelism (KPAR>1).                         |
|      This developmental code was originally  written by Paul Kent at ORNL,  |
|      and carefully double checked in Vienna.                                |
|      GW as well as linear response parallelism added by Martijn Marsman     |
|      and Georg Kresse.                                                      |
|      Carefully verify results versus KPAR=1.                                |
|      Report problems to Paul Kent and Vienna.                               |
|                                                                             |
 ----------------------------------------------------------------------------- 

 LDA part: xc-table for Pade appr. of Perdew

 ----------------------------------------------------------------------------- 
|                                                                             |
|           W    W    AA    RRRRR   N    N  II  N    N   GGGG   !!!           |
|           W    W   A  A   R    R  NN   N  II  NN   N  G    G  !!!           |
|           W    W  A    A  R    R  N N  N  II  N N  N  G       !!!           |
|           W WW W  AAAAAA  RRRRR   N  N N  II  N  N N  G  GGG   !            |
|           WW  WW  A    A  R   R   N   NN  II  N   NN  G    G                |
|           W    W  A    A  R    R  N    N  II  N    N   GGGG   !!!           |
|                                                                             |
|      Your generating k-point grid is not commensurate to the symmetry       |
|      of the lattice.  This can cause   slow convergence with respect        |
|      to k-points for HF type calculations                                   |
|      suggested SOLUTIONS:                                                   |
|       ) if not already the case, use automatic k-point generation           |
|       ) shift your grid to Gamma (G) (e.g. required for hex or fcc lattice) |
|                                                                             |
 ----------------------------------------------------------------------------- 


 ----------------------------------------------------------------------------- 
|                                                                             |
|           W    W    AA    RRRRR   N    N  II  N    N   GGGG   !!!           |
|           W    W   A  A   R    R  NN   N  II  NN   N  G    G  !!!           |
|           W    W  A    A  R    R  N N  N  II  N N  N  G       !!!           |
|           W WW W  AAAAAA  RRRRR   N  N N  II  N  N N  G  GGG   !            |
|           WW  WW  A    A  R   R   N   NN  II  N   NN  G    G                |
|           W    W  A    A  R    R  N    N  II  N    N   GGGG   !!!           |
|                                                                             |
|      The number of bands has been changed from the values supplied          |
|      in the INCAR file. This is a result of running the parallel version.   |
|      The orbitals not found in the WAVECAR file will be initialized with    |
|      random numbers, which is usually adequate. For correlated              |
|      calculations, however, you should redo the groundstate calculation.    |
|      I found NBANDS    =       15  now  NBANDS  =      21                   |
|                                                                             |
 ----------------------------------------------------------------------------- 

 found WAVECAR, reading the header
  number of k-points has changed, file:    30 present:   280
  trying to continue reading WAVECAR, but it might fail
 POSCAR, INCAR and KPOINTS ok, starting setup
 FFT: planning ...
 reading WAVECAR
 the WAVECAR file was read successfully
 initial charge from wavefunction
 entering main loop
       N       E                     dE             d eps       ncg     rms          ort
 gam= 0.000 g(H,U,f)=  0.110E+00 0.184E-01 0.273E-12 ort(H,U,f) = 0.000E+00 0.000E+00 0.000E+00
SDA:   1    -0.918484524390E+01   -0.91848E+01   -0.51276E-01  5880   0.128E+00 0.000E+00
 gam= 0.382 g(H,U,f)=  0.363E-01 0.130E-01 0.106E-07 ort(H,U,f) = 0.602E-01 0.149E-01 0.123E-07
DMP:   2    -0.922551690161E+01   -0.40672E-01   -0.31163E-01  5880   0.492E-01 0.751E-01
 gam= 0.382 g(H,U,f)=  0.621E-02 0.744E-02 0.984E-03 ort(H,U,f) = 0.193E-01 0.135E-01 0.180E-02
DMP:   3    -0.924776927764E+01   -0.22252E-01   -0.11140E-01  5880   0.146E-01 0.346E-01
 gam= 0.382 g(H,U,f)=  0.137E-02 0.366E-02 0.138E-02 ort(H,U,f) = 0.153E-02 0.843E-02 0.306E-02
DMP:   4    -0.925644834059E+01   -0.86791E-02   -0.45529E-02  5880   0.641E-02 0.130E-01
 gam= 0.382 g(H,U,f)=  0.749E-03 0.168E-02 0.984E-04 ort(H,U,f) =-0.598E-03 0.444E-02 0.250E-03
DMP:   5    -0.925945373589E+01   -0.30054E-02   -0.16348E-02  5880   0.252E-02 0.409E-02
 gam= 0.382 g(H,U,f)=  0.590E-03 0.769E-03 0.275E-05 ort(H,U,f) =-0.840E-05 0.218E-02 0.774E-05
DMP:   6    -0.926069470892E+01   -0.12410E-02   -0.87802E-03  5880   0.136E-02 0.218E-02
 gam= 0.382 g(H,U,f)=  0.304E-03 0.361E-03 0.775E-07 ort(H,U,f) = 0.286E-03 0.106E-02 0.232E-06
DMP:   7    -0.926140235189E+01   -0.70764E-03   -0.47227E-03  5880   0.665E-03 0.135E-02
 gam= 0.382 g(H,U,f)=  0.958E-04 0.170E-03 0.333E-08 ort(H,U,f) = 0.164E-03 0.518E-03 0.103E-07
DMP:   8    -0.926177223908E+01   -0.36989E-03   -0.21036E-03  5880   0.265E-03 0.682E-03
 gam= 0.382 g(H,U,f)=  0.234E-04 0.789E-04 0.237E-09 ort(H,U,f) = 0.356E-04 0.249E-03 0.752E-09
DMP:   9    -0.926193242288E+01   -0.16018E-03   -0.84344E-04  5880   0.102E-03 0.284E-03
 gam= 0.382 g(H,U,f)=  0.842E-05 0.361E-04 0.264E-10 ort(H,U,f) = 0.150E-06 0.117E-03 0.864E-10
DMP:  10    -0.926199749618E+01   -0.65073E-04   -0.35715E-04  5880   0.445E-04 0.117E-03
 gam= 0.382 g(H,U,f)=  0.468E-05 0.163E-04 0.419E-11 ort(H,U,f) = 0.561E-07 0.540E-04 0.141E-10
DMP:  11    -0.926202620692E+01   -0.28711E-04   -0.16657E-04  5880   0.210E-04 0.541E-04
 gam= 0.382 g(H,U,f)=  0.222E-05 0.727E-05 0.889E-12 ort(H,U,f) = 0.185E-05 0.246E-04 0.308E-11
DMP:  12    -0.926204013014E+01   -0.13923E-04   -0.78355E-05  5880   0.949E-05 0.264E-04
 gam= 0.382 g(H,U,f)=  0.787E-06 0.321E-05 0.243E-12 ort(H,U,f) = 0.133E-05 0.110E-04 0.859E-12
DMP:  13    -0.926204681235E+01   -0.66822E-05   -0.34874E-05  5880   0.399E-05 0.124E-04
 final diagonalization
   1 F= -.92620468E+01 E0= -.92620468E+01  d E =-.231459E-10  mag=    -0.0000    -0.0000    -0.0000
