<?xml version="1.0" encoding="ISO-8859-1"?>
<modeling>
 <generator>
  <i name="program" type="string">vasp </i>
  <i name="version" type="string">5.4.4.18Apr17-6-g9f103f2a35  </i>
  <i name="subversion" type="string">(build Nov 08 2017 12:56:59) complex            parallel </i>
  <i name="platform" type="string">LinuxIFC </i>
  <i name="date" type="string">2020 06 22 </i>
  <i name="time" type="string">19:30:54 </i>
 </generator>
 <incar>
  <i type="string" name="PREC">n</i>
  <i type="string" name="ALGO"> D</i>
  <i type="logical" name="LDIAG"> T  </i>
  <i type="logical" name="LSORBIT"> T  </i>
  <v name="SAXIS">      0.00000000      0.00000000      1.00000000</v>
  <i type="int" name="ISPIN">     2</i>
  <i type="int" name="ICHARG">    11</i>
  <i name="EDIFF">      0.00010000</i>
  <i name="ENCUT">    300.00000000</i>
  <v name="MAGMOM">      0.00000000      0.00000000      0.00000000      0.00000000      0.00000000      0.00000000</v>
  <i name="TIME">      0.40000000</i>
  <i name="SIGMA">      0.05000000</i>
  <i type="logical" name="LWAVE"> F  </i>
  <i type="logical" name="LCHARG"> F  </i>
  <v type="int" name="KPOINT_BSE">    -1     0     0     0</v>
  <i type="logical" name="LHFCALC"> T  </i>
  <i type="string" name="GGA"> PE</i>
  <i name="HFSCREEN">      0.20000000</i>
  <i name="AEXX">      0.25000000</i>
  <i type="string" name="PRECFOCK">fast</i>
 </incar>
 <structure name="primitive_cell" >
  <crystal>
   <varray name="basis" >
    <v>       0.00000000       3.02920000       3.02920000 </v>
    <v>       3.02920000       0.00000000       3.02920000 </v>
    <v>       3.02920000       3.02920000       0.00000000 </v>
   </varray>
   <i name="volume">     55.59219731 </i>
   <varray name="rec_basis" >
    <v>      -0.16506008       0.16506008       0.16506008 </v>
    <v>       0.16506008      -0.16506008       0.16506008 </v>
    <v>       0.16506008       0.16506008      -0.16506008 </v>
   </varray>
  </crystal>
  <varray name="positions" >
   <v>       0.00000000       0.00000000       0.00000000 </v>
   <v>       0.25000000       0.25000000       0.25000000 </v>
  </varray>
 </structure>
 <varray name="primitive_index" >
  <v type="int" >        1 </v>
  <v type="int" >        2 </v>
 </varray>
 <kpoints>
  <varray name="kpointlist" >
   <v>       0.00000000       0.00000000       0.00000000 </v>
   <v>       0.16666667       0.00000000       0.00000000 </v>
   <v>       0.33333333       0.00000000       0.00000000 </v>
   <v>       0.50000000       0.00000000       0.00000000 </v>
   <v>      -0.33333333       0.00000000       0.00000000 </v>
   <v>      -0.16666667       0.00000000       0.00000000 </v>
   <v>       0.16666667       0.16666667       0.00000000 </v>
   <v>       0.33333333       0.16666667       0.00000000 </v>
   <v>       0.50000000       0.16666667       0.00000000 </v>
   <v>      -0.33333333       0.16666667       0.00000000 </v>
   <v>      -0.16666667       0.16666667       0.00000000 </v>
   <v>       0.33333333       0.33333333       0.00000000 </v>
   <v>       0.50000000       0.33333333       0.00000000 </v>
   <v>      -0.33333333       0.33333333       0.00000000 </v>
   <v>      -0.16666667       0.33333333       0.00000000 </v>
   <v>       0.50000000       0.50000000       0.00000000 </v>
   <v>      -0.33333333       0.50000000       0.00000000 </v>
   <v>      -0.16666667       0.50000000       0.00000000 </v>
   <v>      -0.16666667      -0.33333333       0.00000000 </v>
   <v>       0.50000000       0.33333333       0.16666667 </v>
   <v>      -0.33333333       0.33333333       0.16666667 </v>
   <v>      -0.33333333       0.50000000       0.16666667 </v>
   <v>       0.00000000       0.00000000       0.00000000 </v>
   <v>       0.02631579       0.00000000       0.02631579 </v>
   <v>       0.05263158       0.00000000       0.05263158 </v>
   <v>       0.07894737       0.00000000       0.07894737 </v>
   <v>       0.10526316       0.00000000       0.10526316 </v>
   <v>       0.13157895       0.00000000       0.13157895 </v>
   <v>       0.15789474       0.00000000       0.15789474 </v>
   <v>       0.18421053       0.00000000       0.18421053 </v>
   <v>       0.21052632       0.00000000       0.21052632 </v>
   <v>       0.23684211       0.00000000       0.23684211 </v>
   <v>       0.26315789       0.00000000       0.26315789 </v>
   <v>       0.28947368       0.00000000       0.28947368 </v>
   <v>       0.31578947       0.00000000       0.31578947 </v>
   <v>       0.34210526       0.00000000       0.34210526 </v>
   <v>       0.36842105       0.00000000       0.36842105 </v>
   <v>       0.39473684       0.00000000       0.39473684 </v>
   <v>       0.42105263       0.00000000       0.42105263 </v>
   <v>       0.44736842       0.00000000       0.44736842 </v>
   <v>       0.47368421       0.00000000       0.47368421 </v>
   <v>       0.50000000       0.00000000       0.50000000 </v>
   <v>       0.50000000       0.00000000       0.50000000 </v>
   <v>       0.50000000       0.01315789       0.51315789 </v>
   <v>       0.50000000       0.02631579       0.52631579 </v>
   <v>       0.50000000       0.03947368       0.53947368 </v>
   <v>       0.50000000       0.05263158       0.55263158 </v>
   <v>       0.50000000       0.06578947       0.56578947 </v>
   <v>       0.50000000       0.07894737       0.57894737 </v>
   <v>       0.50000000       0.09210526       0.59210526 </v>
   <v>       0.50000000       0.10526316       0.60526316 </v>
   <v>       0.50000000       0.11842105       0.61842105 </v>
   <v>       0.50000000       0.13157895       0.63157895 </v>
   <v>       0.50000000       0.14473684       0.64473684 </v>
   <v>       0.50000000       0.15789474       0.65789474 </v>
   <v>       0.50000000       0.17105263       0.67105263 </v>
   <v>       0.50000000       0.18421053       0.68421053 </v>
   <v>       0.50000000       0.19736842       0.69736842 </v>
   <v>       0.50000000       0.21052632       0.71052632 </v>
   <v>       0.50000000       0.22368421       0.72368421 </v>
   <v>       0.50000000       0.23684211       0.73684211 </v>
   <v>       0.50000000       0.25000000       0.75000000 </v>
   <v>       0.50000000       0.25000000       0.75000000 </v>
   <v>       0.50000000       0.26315789       0.73684211 </v>
   <v>       0.50000000       0.27631579       0.72368421 </v>
   <v>       0.50000000       0.28947368       0.71052632 </v>
   <v>       0.50000000       0.30263158       0.69736842 </v>
   <v>       0.50000000       0.31578947       0.68421053 </v>
   <v>       0.50000000       0.32894737       0.67105263 </v>
   <v>       0.50000000       0.34210526       0.65789474 </v>
   <v>       0.50000000       0.35526316       0.64473684 </v>
   <v>       0.50000000       0.36842105       0.63157895 </v>
   <v>       0.50000000       0.38157895       0.61842105 </v>
   <v>       0.50000000       0.39473684       0.60526316 </v>
   <v>       0.50000000       0.40789474       0.59210526 </v>
   <v>       0.50000000       0.42105263       0.57894737 </v>
   <v>       0.50000000       0.43421053       0.56578947 </v>
   <v>       0.50000000       0.44736842       0.55263158 </v>
   <v>       0.50000000       0.46052632       0.53947368 </v>
   <v>       0.50000000       0.47368421       0.52631579 </v>
   <v>       0.50000000       0.48684211       0.51315789 </v>
   <v>       0.50000000       0.50000000       0.50000000 </v>
   <v>       0.50000000       0.50000000       0.50000000 </v>
   <v>       0.47368421       0.47368421       0.47368421 </v>
   <v>       0.44736842       0.44736842       0.44736842 </v>
   <v>       0.42105263       0.42105263       0.42105263 </v>
   <v>       0.39473684       0.39473684       0.39473684 </v>
   <v>       0.36842105       0.36842105       0.36842105 </v>
   <v>       0.34210526       0.34210526       0.34210526 </v>
   <v>       0.31578947       0.31578947       0.31578947 </v>
   <v>       0.28947368       0.28947368       0.28947368 </v>
   <v>       0.26315789       0.26315789       0.26315789 </v>
   <v>       0.23684211       0.23684211       0.23684211 </v>
   <v>       0.21052632       0.21052632       0.21052632 </v>
   <v>       0.18421053       0.18421053       0.18421053 </v>
   <v>       0.15789474       0.15789474       0.15789474 </v>
   <v>       0.13157895       0.13157895       0.13157895 </v>
   <v>       0.10526316       0.10526316       0.10526316 </v>
   <v>       0.07894737       0.07894737       0.07894737 </v>
   <v>       0.05263158       0.05263158       0.05263158 </v>
   <v>       0.02631579       0.02631579       0.02631579 </v>
   <v>       0.00000000       0.00000000       0.00000000 </v>
   <v>       0.00000000       0.00000000       0.00000000 </v>
   <v>       0.01973684       0.01973684       0.03947368 </v>
   <v>       0.03947368       0.03947368       0.07894737 </v>
   <v>       0.05921053       0.05921053       0.11842105 </v>
   <v>       0.07894737       0.07894737       0.15789474 </v>
   <v>       0.09868421       0.09868421       0.19736842 </v>
   <v>       0.11842105       0.11842105       0.23684211 </v>
   <v>       0.13815789       0.13815789       0.27631579 </v>
   <v>       0.15789474       0.15789474       0.31578947 </v>
   <v>       0.17763158       0.17763158       0.35526316 </v>
   <v>       0.19736842       0.19736842       0.39473684 </v>
   <v>       0.21710526       0.21710526       0.43421053 </v>
   <v>       0.23684211       0.23684211       0.47368421 </v>
   <v>       0.25657895       0.25657895       0.51315789 </v>
   <v>       0.27631579       0.27631579       0.55263158 </v>
   <v>       0.29605263       0.29605263       0.59210526 </v>
   <v>       0.31578947       0.31578947       0.63157895 </v>
   <v>       0.33552632       0.33552632       0.67105263 </v>
   <v>       0.35526316       0.35526316       0.71052632 </v>
   <v>       0.37500000       0.37500000       0.75000000 </v>
  </varray>
  <varray name="weights" >
   <v>       0.00462963 </v>
   <v>       0.01851852 </v>
   <v>       0.01851852 </v>
   <v>       0.01851852 </v>
   <v>       0.01851852 </v>
   <v>       0.01851852 </v>
   <v>       0.02777778 </v>
   <v>       0.05555556 </v>
   <v>       0.05555556 </v>
   <v>       0.05555556 </v>
   <v>       0.05555556 </v>
   <v>       0.02777778 </v>
   <v>       0.05555556 </v>
   <v>       0.05555556 </v>
   <v>       0.05555556 </v>
   <v>       0.01388889 </v>
   <v>       0.05555556 </v>
   <v>       0.05555556 </v>
   <v>       0.05555556 </v>
   <v>       0.11111111 </v>
   <v>       0.11111111 </v>
   <v>       0.05555556 </v>
   <v>       0.00000000 </v>
   <v>       0.00000000 </v>
   <v>       0.00000000 </v>
   <v>       0.00000000 </v>
   <v>       0.00000000 </v>
   <v>       0.00000000 </v>
   <v>       0.00000000 </v>
   <v>       0.00000000 </v>
   <v>       0.00000000 </v>
   <v>       0.00000000 </v>
   <v>       0.00000000 </v>
   <v>       0.00000000 </v>
   <v>       0.00000000 </v>
   <v>       0.00000000 </v>
   <v>       0.00000000 </v>
   <v>       0.00000000 </v>
   <v>       0.00000000 </v>
   <v>       0.00000000 </v>
   <v>       0.00000000 </v>
   <v>       0.00000000 </v>
   <v>       0.00000000 </v>
   <v>       0.00000000 </v>
   <v>       0.00000000 </v>
   <v>       0.00000000 </v>
   <v>       0.00000000 </v>
   <v>       0.00000000 </v>
   <v>       0.00000000 </v>
   <v>       0.00000000 </v>
   <v>       0.00000000 </v>
   <v>       0.00000000 </v>
   <v>       0.00000000 </v>
   <v>       0.00000000 </v>
   <v>       0.00000000 </v>
   <v>       0.00000000 </v>
   <v>       0.00000000 </v>
   <v>       0.00000000 </v>
   <v>       0.00000000 </v>
   <v>       0.00000000 </v>
   <v>       0.00000000 </v>
   <v>       0.00000000 </v>
   <v>       0.00000000 </v>
   <v>       0.00000000 </v>
   <v>       0.00000000 </v>
   <v>       0.00000000 </v>
   <v>       0.00000000 </v>
   <v>       0.00000000 </v>
   <v>       0.00000000 </v>
   <v>       0.00000000 </v>
   <v>       0.00000000 </v>
   <v>       0.00000000 </v>
   <v>       0.00000000 </v>
   <v>       0.00000000 </v>
   <v>       0.00000000 </v>
   <v>       0.00000000 </v>
   <v>       0.00000000 </v>
   <v>       0.00000000 </v>
   <v>       0.00000000 </v>
   <v>       0.00000000 </v>
   <v>       0.00000000 </v>
   <v>       0.00000000 </v>
   <v>       0.00000000 </v>
   <v>       0.00000000 </v>
   <v>       0.00000000 </v>
   <v>       0.00000000 </v>
   <v>       0.00000000 </v>
   <v>       0.00000000 </v>
   <v>       0.00000000 </v>
   <v>       0.00000000 </v>
   <v>       0.00000000 </v>
   <v>       0.00000000 </v>
   <v>       0.00000000 </v>
   <v>       0.00000000 </v>
   <v>       0.00000000 </v>
   <v>       0.00000000 </v>
   <v>       0.00000000 </v>
   <v>       0.00000000 </v>
   <v>       0.00000000 </v>
   <v>       0.00000000 </v>
   <v>       0.00000000 </v>
   <v>       0.00000000 </v>
   <v>       0.00000000 </v>
   <v>       0.00000000 </v>
   <v>       0.00000000 </v>
   <v>       0.00000000 </v>
   <v>       0.00000000 </v>
   <v>       0.00000000 </v>
   <v>       0.00000000 </v>
   <v>       0.00000000 </v>
   <v>       0.00000000 </v>
   <v>       0.00000000 </v>
   <v>       0.00000000 </v>
   <v>       0.00000000 </v>
   <v>       0.00000000 </v>
   <v>       0.00000000 </v>
   <v>       0.00000000 </v>
   <v>       0.00000000 </v>
   <v>       0.00000000 </v>
   <v>       0.00000000 </v>
   <v>       0.00000000 </v>
   <v>       0.00000000 </v>
  </varray>
 </kpoints>
 <parameters>
  <separator name="general" >
   <i type="string" name="SYSTEM">unknown system</i>
   <i type="logical" name="LCOMPAT"> F  </i>
  </separator>
  <separator name="electronic" >
   <i type="string" name="PREC">n</i>
   <i name="ENMAX">    300.00000000</i>
   <i name="ENAUG">    462.75800000</i>
   <i name="EDIFF">      0.00010000</i>
   <i type="int" name="IALGO">    53</i>
   <i type="int" name="IWAVPR">    10</i>
   <i type="int" name="NBANDS">    56</i>
   <i name="NELECT">      8.00000000</i>
   <i type="int" name="TURBO">     0</i>
   <i type="int" name="IRESTART">     0</i>
   <i type="int" name="NREBOOT">     0</i>
   <i type="int" name="NMIN">     0</i>
   <i name="EREF">      0.00000000</i>
   <separator name="electronic smearing" >
    <i type="int" name="ISMEAR">     1</i>
    <i name="SIGMA">      0.05000000</i>
    <i name="KSPACING">      0.50000000</i>
    <i type="logical" name="KGAMMA"> T  </i>
   </separator>
   <separator name="electronic projectors" >
    <i type="logical" name="LREAL"> F  </i>
    <v name="ROPT">      0.00000000      0.00000000</v>
    <i type="int" name="LMAXPAW">  -100</i>
    <i type="int" name="LMAXMIX">     2</i>
    <i type="logical" name="NLSPLINE"> F  </i>
   </separator>
   <separator name="electronic startup" >
    <i type="int" name="ISTART">     1</i>
    <i type="int" name="ICHARG">    11</i>
    <i type="int" name="INIWAV">     1</i>
   </separator>
   <separator name="electronic spin" >
    <i type="int" name="ISPIN">     1</i>
    <i type="logical" name="LNONCOLLINEAR"> T  </i>
    <v name="MAGMOM">      0.00000000      0.00000000      0.00000000      0.00000000      0.00000000      0.00000000</v>
    <i name="NUPDOWN">     -1.00000000</i>
    <i type="logical" name="LSORBIT"> T  </i>
    <v name="SAXIS">      0.00000000      0.00000000      1.00000000</v>
    <i type="logical" name="LSPIRAL"> F  </i>
    <v name="QSPIRAL">      0.00000000      0.00000000      0.00000000</v>
    <i type="logical" name="LZEROZ"> F  </i>
   </separator>
   <separator name="electronic exchange-correlation" >
    <i type="logical" name="LASPH"> F  </i>
    <i type="logical" name="LMETAGGA"> F  </i>
   </separator>
   <separator name="electronic convergence" >
    <i type="int" name="NELM">    60</i>
    <i type="int" name="NELMDL">     0</i>
    <i type="int" name="NELMIN">     2</i>
    <i name="ENINI">    300.00000000</i>
    <separator name="electronic convergence detail" >
     <i type="logical" name="LDIAG"> T  </i>
     <i type="logical" name="LSUBROT"> F  </i>
     <i name="WEIMIN">      0.00000000</i>
     <i name="EBREAK">      0.00000045</i>
     <i name="DEPER">      0.30000000</i>
     <i type="int" name="NRMM">     4</i>
     <i name="TIME">      0.40000000</i>
    </separator>
   </separator>
   <separator name="electronic mixer" >
    <i name="AMIX">      0.40000000</i>
    <i name="BMIX">      1.00000000</i>
    <i name="AMIN">      0.10000000</i>
    <i name="AMIX_MAG">      1.60000000</i>
    <i name="BMIX_MAG">      1.00000000</i>
    <separator name="electronic mixer details" >
     <i type="int" name="IMIX">     4</i>
     <i type="logical" name="MIXFIRST"> F  </i>
     <i type="int" name="MAXMIX">   -45</i>
     <i name="WC">    100.00000000</i>
     <i type="int" name="INIMIX">     1</i>
     <i type="int" name="MIXPRE">     1</i>
     <i type="int" name="MREMOVE">     5</i>
    </separator>
   </separator>
   <separator name="electronic dipolcorrection" >
    <i type="logical" name="LDIPOL"> F  </i>
    <i type="logical" name="LMONO"> F  </i>
    <i type="int" name="IDIPOL">     0</i>
    <i name="EPSILON">      1.00000000</i>
    <v name="DIPOL">   -100.00000000   -100.00000000   -100.00000000</v>
    <i name="EFIELD">      0.00000000</i>
   </separator>
  </separator>
  <separator name="grids" >
   <i type="int" name="NGX">    18</i>
   <i type="int" name="NGY">    18</i>
   <i type="int" name="NGZ">    18</i>
   <i type="int" name="NGXF">    36</i>
   <i type="int" name="NGYF">    36</i>
   <i type="int" name="NGZF">    36</i>
   <i type="logical" name="ADDGRID"> F  </i>
  </separator>
  <separator name="ionic" >
   <i type="int" name="NSW">     0</i>
   <i type="int" name="IBRION">    -1</i>
   <i type="int" name="MDALGO">     0</i>
   <i type="int" name="ISIF">     0</i>
   <i name="PSTRESS">      0.00000000</i>
   <i name="EDIFFG">      0.00100000</i>
   <i type="int" name="NFREE">     0</i>
   <i name="POTIM">      0.50000000</i>
   <i name="SMASS">     -3.00000000</i>
   <i name="SCALEE">      1.00000000</i>
  </separator>
  <separator name="ionic md" >
   <i name="TEBEG">      0.00010000</i>
   <i name="TEEND">      0.00010000</i>
   <i type="int" name="NBLOCK">     1</i>
   <i type="int" name="KBLOCK">     1</i>
   <i type="int" name="NPACO">   256</i>
   <i name="APACO">     16.00000000</i>
  </separator>
  <separator name="symmetry" >
   <i type="int" name="ISYM">     3</i>
   <i name="SYMPREC">      0.00001000</i>
  </separator>
  <separator name="dos" >
   <i type="int" name="LORBIT">     0</i>
   <v name="RWIGS">     -1.00000000     -1.00000000</v>
   <i type="int" name="NEDOS">   301</i>
   <i name="EMIN">     10.00000000</i>
   <i name="EMAX">    -10.00000000</i>
   <i name="EFERMI">      0.00000000</i>
  </separator>
  <separator name="writing" >
   <i type="int" name="NWRITE">     2</i>
   <i type="logical" name="LWAVE"> F  </i>
   <i type="logical" name="LDOWNSAMPLE"> F  </i>
   <i type="logical" name="LCHARG"> F  </i>
   <i type="logical" name="LPARD"> F  </i>
   <i type="logical" name="LVTOT"> F  </i>
   <i type="logical" name="LVHAR"> F  </i>
   <i type="logical" name="LELF"> F  </i>
   <i type="logical" name="LOPTICS"> F  </i>
   <v name="STM">      0.00000000      0.00000000      0.00000000      0.00000000      0.00000000      0.00000000      0.00000000</v>
  </separator>
  <separator name="performance" >
   <i type="int" name="NPAR">    56</i>
   <i type="int" name="NSIM">     4</i>
   <i type="int" name="NBLK">    -1</i>
   <i type="logical" name="LPLANE"> T  </i>
   <i type="logical" name="LSCALAPACK"> T  </i>
   <i type="logical" name="LSCAAWARE"> T  </i>
   <i type="logical" name="LSCALU"> F  </i>
   <i type="logical" name="LASYNC"> F  </i>
   <i type="logical" name="LORBITALREAL"> F  </i>
  </separator>
  <separator name="miscellaneous" >
   <i type="int" name="IDIOT">     3</i>
   <i type="int" name="ISPECIAL">     0</i>
   <i type="logical" name="LMUSIC"> F  </i>
   <v name="POMASS">    114.82000000     74.92200000</v>
   <v name="DARWINR">      0.00000000      0.00000000</v>
   <v name="DARWINV">      1.00000000      1.00000000</v>
   <i type="logical" name="LCORR"> T  </i>
  </separator>
  <i type="logical" name="GGA_COMPAT"> T  </i>
  <i type="logical" name="LBERRY"> F  </i>
  <i type="int" name="ICORELEVEL">     0</i>
  <i type="logical" name="LDAU"> F  </i>
  <i type="int" name="I_CONSTRAINED_M">     0</i>
  <separator name="electronic exchange-correlation" >
   <i type="string" name="GGA">PE</i>
   <i type="int" name="VOSKOWN">     0</i>
   <i type="logical" name="LHFCALC"> T  </i>
   <i type="string" name="PRECFOCK">fast</i>
   <i type="logical" name="LSYMGRAD"> F  </i>
   <i type="logical" name="LHFONE"> F  </i>
   <i type="logical" name="LRHFCALC"> F  </i>
   <i type="logical" name="LTHOMAS"> F  </i>
   <i type="logical" name="LMODELHF"> F  </i>
   <i name="ENCUT4O">     -1.00000000</i>
   <i type="int" name="EXXOEP">     0</i>
   <i type="int" name="FOURORBIT">     0</i>
   <i name="AEXX">      0.25000000</i>
   <i name="HFALPHA">     -1.00000000</i>
   <i name="MCALPHA">      0.00000000</i>
   <i name="ALDAX">      0.75000000</i>
   <i name="AGGAX">      0.75000000</i>
   <i name="ALDAC">      1.00000000</i>
   <i name="AGGAC">      1.00000000</i>
   <i type="int" name="NKREDX">     1</i>
   <i type="int" name="NKREDY">     1</i>
   <i type="int" name="NKREDZ">     1</i>
   <i type="logical" name="SHIFTRED"> F  </i>
   <i type="logical" name="ODDONLY"> F  </i>
   <i type="logical" name="EVENONLY"> F  </i>
   <i type="int" name="LMAXFOCK">     4</i>
   <i type="int" name="NMAXFOCKAE">     1</i>
   <i type="logical" name="LFOCKAEDFT"> F  </i>
   <i name="HFSCREEN">      0.20000000</i>
   <i name="HFSCREENC">      0.20000000</i>
   <i type="int" name="NBANDSGWLOW">     1</i>
  </separator>
  <separator name="vdW DFT" >
   <i type="logical" name="LUSE_VDW"> F  </i>
   <i name="Zab_VDW">     -0.84910000</i>
   <i name="PARAM1">      0.12340000</i>
   <i name="PARAM2">      1.00000000</i>
   <i name="PARAM3">      0.00000000</i>
  </separator>
  <separator name="model GW" >
   <i type="int" name="MODEL_GW">     0</i>
   <i name="MODEL_EPS0">     16.67765919</i>
   <i name="MODEL_ALPHA">      1.00000000</i>
  </separator>
  <separator name="linear response parameters" >
   <i type="logical" name="LEPSILON"> F  </i>
   <i type="logical" name="LRPA"> F  </i>
   <i type="logical" name="LNABLA"> F  </i>
   <i type="logical" name="LVEL"> F  </i>
   <i type="int" name="KINTER">     0</i>
   <i name="CSHIFT">      0.10000000</i>
   <i name="OMEGAMAX">     -1.00000000</i>
   <i name="DEG_THRESHOLD">      0.00200000</i>
   <i name="RTIME">     -0.10000000</i>
   <i name="WPLASMAI">      0.00000000</i>
   <v name="DFIELD">      0.00000000      0.00000000      0.00000000</v>
   <v name="WPLASMA">      0.00000000      0.00000000      0.00000000      0.00000000      0.00000000      0.00000000      0.00000000      0.00000000      0.00000000</v>
  </separator>
  <separator name="orbital magnetization" >
   <i type="logical" name="NUCIND"> F  </i>
   <v name="MAGPOS">      0.00000000      0.00000000      0.00000000</v>
   <i type="logical" name="LNICSALL"> T  </i>
   <i type="logical" name="ORBITALMAG"> F  </i>
   <i type="logical" name="LMAGBLOCH"> F  </i>
   <i type="logical" name="LCHIMAG"> F  </i>
   <i type="logical" name="LGAUGE"> T  </i>
   <i type="int" name="MAGATOM">     0</i>
   <v name="MAGDIPOL">      0.00000000      0.00000000      0.00000000</v>
   <v name="AVECCONST">      0.00000000      0.00000000      0.00000000</v>
  </separator>
  <separator name="response functions" >
   <i type="logical" name="LADDER"> F  </i>
   <i type="logical" name="LRPAFORCE"> F  </i>
   <i type="logical" name="LFXC"> F  </i>
   <i type="logical" name="LHARTREE"> T  </i>
   <i type="int" name="IBSE">     0</i>
   <v type="int" name="KPOINT">    -1     0     0     0</v>
   <i type="logical" name="LTCTE"> F  </i>
   <i type="logical" name="LTETE"> F  </i>
   <i type="logical" name="LTRIPLET"> F  </i>
   <i type="logical" name="LFXCEPS"> F  </i>
   <i type="logical" name="LFXHEG"> F  </i>
   <i type="int" name="NATURALO">     2</i>
   <i type="logical" name="L2ORDER"> F  </i>
   <i type="logical" name="LMP2LT"> F  </i>
   <i type="logical" name="LUSEW"> F  </i>
   <i name="ENCUTGW">     -2.00000000</i>
   <i name="ENCUTGWSOFT">     -2.00000000</i>
   <i name="ENCUTLF">     -1.00000000</i>
   <i type="int" name="LMAXMP2">    -1</i>
   <i name="SCISSOR">      0.00000000</i>
   <i type="int" name="NOMEGA">     0</i>
   <i type="int" name="NOMEGAR">     0</i>
   <i type="int" name="NBANDSGW">    -1</i>
   <i type="int" name="NBANDSO">    -1</i>
   <i type="int" name="NBANDSV">    -1</i>
   <i type="int" name="NELM">     1</i>
   <i type="int" name="NELMHF">     1</i>
   <i type="int" name="DIM">     3</i>
   <i type="int" name="ANTIRES">     0</i>
   <i name="OMEGAMAX">    -30.00000000</i>
   <i name="OMEGAMIN">    -30.00000000</i>
   <i name="OMEGATL">   -200.00000000</i>
   <i type="int" name="OMEGAGRID">   140</i>
   <i name="CSHIFT">     -0.10000000</i>
   <i type="logical" name="SELFENERGY"> F  </i>
   <i type="logical" name="LSPECTRAL"> F  </i>
   <i type="logical" name="LSPECTRALGW"> F  </i>
   <i type="logical" name="LSINGLES"> F  </i>
   <i type="logical" name="LFERMIGW"> F  </i>
   <i type="logical" name="ODDONLYGW"> F  </i>
   <i type="logical" name="EVENONLYGW"> F  </i>
   <i type="int" name="NKREDLFX">     1</i>
   <i type="int" name="NKREDLFY">     1</i>
   <i type="int" name="NKREDLFZ">     1</i>
   <i type="int" name="MAXMEM">  2800</i>
   <i type="int" name="TELESCOPE">     0</i>
   <i type="int" name="TAUPAR">     1</i>
   <i type="int" name="OMEGAPAR">    -1</i>
   <i name="LAMBDA">      1.00000000</i>
  </separator>
  <separator name="External order field" >
   <i name="OFIELD_KAPPA">      0.00000000</i>
   <v name="OFIELD_K">      0.00000000      0.00000000      0.00000000</v>
   <i name="OFIELD_Q6_NEAR">      0.00000000</i>
   <i name="OFIELD_Q6_FAR">      0.00000000</i>
   <i name="OFIELD_A">      0.00000000</i>
  </separator>
 </parameters>
 <atominfo>
  <atoms>       2 </atoms>
  <types>       2 </types>
  <array name="atoms" >
   <dimension dim="1">ion</dimension>
   <field type="string">element</field>
   <field type="int">atomtype</field>
   <set>
    <rc><c>In</c><c>   1</c></rc>
    <rc><c>As</c><c>   2</c></rc>
   </set>
  </array>
  <array name="atomtypes" >
   <dimension dim="1">type</dimension>
   <field type="int">atomspertype</field>
   <field type="string">element</field>
   <field>mass</field>
   <field>valence</field>
   <field type="string">pseudopotential</field>
   <set>
    <rc><c>   1</c><c>In</c><c>    114.82000000</c><c>      3.00000000</c><c>  PAW_PBE In 08Apr2002                  </c></rc>
    <rc><c>   1</c><c>As</c><c>     74.92200000</c><c>      5.00000000</c><c>  PAW_PBE As 22Sep2009                  </c></rc>
   </set>
  </array>
 </atominfo>
 <structure name="initialpos" >
  <crystal>
   <varray name="basis" >
    <v>       0.00000000       3.02920000       3.02920000 </v>
    <v>       3.02920000       0.00000000       3.02920000 </v>
    <v>       3.02920000       3.02920000       0.00000000 </v>
   </varray>
   <i name="volume">     55.59219731 </i>
   <varray name="rec_basis" >
    <v>      -0.16506008       0.16506008       0.16506008 </v>
    <v>       0.16506008      -0.16506008       0.16506008 </v>
    <v>       0.16506008       0.16506008      -0.16506008 </v>
   </varray>
  </crystal>
  <varray name="positions" >
   <v>       0.00000000       0.00000000       0.00000000 </v>
   <v>       0.25000000       0.25000000       0.25000000 </v>
  </varray>
 </structure>
 <calculation>
  <scstep>
   <time name="total">  337.62  337.78</time>
   <energy>
    <i name="alphaZ">      6.67624893 </i>
    <i name="ewald">   -213.84743004 </i>
    <i name="hartreedc">    -25.61076605 </i>
    <i name="XCdc">    -54.03876417 </i>
    <i name="pawpsdc">    522.72460095 </i>
    <i name="pawaedc">   -458.15549704 </i>
    <i name="eentropy">     -0.00013060 </i>
    <i name="bandstr">    -18.99126077 </i>
    <i name="atom">    221.54853201 </i>
    <i name="e_fr_energy">     -9.17465690 </i>
    <i name="e_wo_entrp">     -9.17452630 </i>
    <i name="e_0_energy">     -9.17461337 </i>
   </energy>
  </scstep>
  <scstep>
   <time name="total">  335.10  335.27</time>
   <energy>
    <i name="e_fr_energy">     -9.21064647 </i>
    <i name="e_wo_entrp">     -9.21054510 </i>
    <i name="e_0_energy">     -9.21061268 </i>
   </energy>
  </scstep>
  <scstep>
   <time name="total">  333.94  334.10</time>
   <energy>
    <i name="e_fr_energy">     -9.23540639 </i>
    <i name="e_wo_entrp">     -9.23536373 </i>
    <i name="e_0_energy">     -9.23539217 </i>
   </energy>
  </scstep>
  <scstep>
   <time name="total">  335.26  335.44</time>
   <energy>
    <i name="e_fr_energy">     -9.24949820 </i>
    <i name="e_wo_entrp">     -9.24952838 </i>
    <i name="e_0_energy">     -9.24950826 </i>
   </energy>
  </scstep>
  <scstep>
   <time name="total">  333.79  333.96</time>
   <energy>
    <i name="e_fr_energy">     -9.25455580 </i>
    <i name="e_wo_entrp">     -9.25458264 </i>
    <i name="e_0_energy">     -9.25456474 </i>
   </energy>
  </scstep>
  <scstep>
   <time name="total">  333.86  334.02</time>
   <energy>
    <i name="e_fr_energy">     -9.25692269 </i>
    <i name="e_wo_entrp">     -9.25693611 </i>
    <i name="e_0_energy">     -9.25692716 </i>
   </energy>
  </scstep>
  <scstep>
   <time name="total">  332.87  333.04</time>
   <energy>
    <i name="e_fr_energy">     -9.25827463 </i>
    <i name="e_wo_entrp">     -9.25830147 </i>
    <i name="e_0_energy">     -9.25828358 </i>
   </energy>
  </scstep>
  <scstep>
   <time name="total">  334.53  334.70</time>
   <energy>
    <i name="e_fr_energy">     -9.25897838 </i>
    <i name="e_wo_entrp">     -9.25900523 </i>
    <i name="e_0_energy">     -9.25898733 </i>
   </energy>
  </scstep>
  <scstep>
   <time name="total">  333.48  333.65</time>
   <energy>
    <i name="e_fr_energy">     -9.25933279 </i>
    <i name="e_wo_entrp">     -9.25935963 </i>
    <i name="e_0_energy">     -9.25934174 </i>
   </energy>
  </scstep>
  <scstep>
   <time name="total">  334.07  334.23</time>
   <energy>
    <i name="e_fr_energy">     -9.25950209 </i>
    <i name="e_wo_entrp">     -9.25952894 </i>
    <i name="e_0_energy">     -9.25951104 </i>
   </energy>
  </scstep>
  <scstep>
   <time name="total">  672.92  673.25</time>
   <energy>
    <i name="alphaZ">      6.67624893 </i>
    <i name="ewald">   -213.84743004 </i>
    <i name="hartreedc">    -25.61076605 </i>
    <i name="XCdc">    -54.03876417 </i>
    <i name="pawpsdc">    522.72460095 </i>
    <i name="pawaedc">   -458.15549704 </i>
    <i name="eentropy">      0.00002684 </i>
    <i name="bandstr">    -19.14979289 </i>
    <i name="atom">    221.54853201 </i>
    <i name="e_fr_energy">     -9.25958410 </i>
    <i name="e_wo_entrp">     -9.25961094 </i>
    <i name="e_0_energy">     -9.25959305 </i>
   </energy>
  </scstep>
  <structure>
   <crystal>
    <varray name="basis" >
     <v>       0.00000000       3.02920000       3.02920000 </v>
     <v>       3.02920000       0.00000000       3.02920000 </v>
     <v>       3.02920000       3.02920000       0.00000000 </v>
    </varray>
    <i name="volume">     55.59219731 </i>
    <varray name="rec_basis" >
     <v>      -0.16506008       0.16506008       0.16506008 </v>
     <v>       0.16506008      -0.16506008       0.16506008 </v>
     <v>       0.16506008       0.16506008      -0.16506008 </v>
    </varray>
   </crystal>
   <varray name="positions" >
    <v>       0.00000000       0.00000000       0.00000000 </v>
    <v>       0.25000000       0.25000000       0.25000000 </v>
   </varray>
  </structure>
  <varray name="forces" >
   <v>       0.00000000       0.00000000       0.00000000 </v>
   <v>      -0.00000000      -0.00000000      -0.00000000 </v>
  </varray>
  <energy>
   <i name="e_fr_energy">     -9.25958410 </i>
   <i name="e_wo_entrp">     -9.25959305 </i>
   <i name="e_0_energy">      0.00002684 </i>
  </energy>
  <time name="totalsc"> 4773.00 4775.29</time>
  <eigenvalues>
   <array>
    <dimension dim="1">band</dimension>
    <dimension dim="2">kpoint</dimension>
    <dimension dim="3">spin</dimension>
    <field>eigene</field>
    <field>occ</field>
    <set>
     <set comment="spin 1">
      <set comment="kpoint 1">
       <r>  -10.1548    1.0000 </r>
       <r>  -10.1548    1.0000 </r>
       <r>    2.5652    1.0000 </r>
       <r>    2.5652    1.0000 </r>
       <r>    2.9547    1.0000 </r>
       <r>    2.9547    1.0000 </r>
       <r>    2.9547    1.0000 </r>
       <r>    2.9547    1.0000 </r>
       <r>    3.4314   -0.0000 </r>
       <r>    3.4314   -0.0000 </r>
       <r>    7.2632    0.0000 </r>
       <r>    7.2632    0.0000 </r>
       <r>    7.7061    0.0000 </r>
       <r>    7.7061    0.0000 </r>
       <r>    7.7061    0.0000 </r>
       <r>    7.7061    0.0000 </r>
       <r>   11.3316    0.0000 </r>
       <r>   11.3316    0.0000 </r>
       <r>   13.2498    0.0000 </r>
       <r>   13.2498    0.0000 </r>
       <r>   13.2498    0.0000 </r>
       <r>   13.2498    0.0000 </r>
       <r>   14.1649    0.0000 </r>
       <r>   14.1649    0.0000 </r>
       <r>   14.1989    0.0000 </r>
       <r>   14.1989    0.0000 </r>
       <r>   14.1989    0.0000 </r>
       <r>   14.1989    0.0000 </r>
       <r>   16.6375    0.0000 </r>
       <r>   16.6375    0.0000 </r>
       <r>   25.4164    0.0000 </r>
       <r>   25.4164    0.0000 </r>
       <r>   25.4164    0.0000 </r>
       <r>   25.4164    0.0000 </r>
       <r>   25.6205    0.0000 </r>
       <r>   25.6205    0.0000 </r>
       <r>   26.7249    0.0000 </r>
       <r>   26.7249    0.0000 </r>
       <r>   26.7249    0.0000 </r>
       <r>   26.7249    0.0000 </r>
       <r>   26.8014    0.0000 </r>
       <r>   26.8014    0.0000 </r>
       <r>   26.9894    0.0000 </r>
       <r>   26.9894    0.0000 </r>
       <r>   26.9904    0.0000 </r>
       <r>   26.9904    0.0000 </r>
       <r>   26.9904    0.0000 </r>
       <r>   26.9904    0.0000 </r>
       <r>   27.3577    0.0000 </r>
       <r>   27.3577    0.0000 </r>
       <r>   27.3577    0.0000 </r>
       <r>   27.3577    0.0000 </r>
       <r>   34.3714    0.0000 </r>
       <r>   34.4484    0.0000 </r>
       <r>   34.5102    0.0000 </r>
       <r>   34.6986    0.0000 </r>
      </set>
      <set comment="kpoint 2">
       <r>   -9.8859    1.0000 </r>
       <r>   -9.8859    1.0000 </r>
       <r>    0.2896    1.0000 </r>
       <r>    0.2896    1.0000 </r>
       <r>    2.3632    1.0000 </r>
       <r>    2.3632    1.0000 </r>
       <r>    2.6234    1.0000 </r>
       <r>    2.6315    1.0000 </r>
       <r>    4.8169    0.0000 </r>
       <r>    4.8169    0.0000 </r>
       <r>    7.8168    0.0000 </r>
       <r>    7.8168    0.0000 </r>
       <r>    8.0414    0.0000 </r>
       <r>    8.0414    0.0000 </r>
       <r>    8.1687    0.0000 </r>
       <r>    8.1708    0.0000 </r>
       <r>   12.1768    0.0000 </r>
       <r>   12.2095    0.0000 </r>
       <r>   12.2095    0.0000 </r>
       <r>   12.2445    0.0000 </r>
       <r>   12.3961    0.0000 </r>
       <r>   12.3961    0.0000 </r>
       <r>   13.8023    0.0000 </r>
       <r>   13.8023    0.0000 </r>
       <r>   16.2668    0.0000 </r>
       <r>   16.2729    0.0000 </r>
       <r>   16.2729    0.0000 </r>
       <r>   16.3342    0.0000 </r>
       <r>   18.6760    0.0000 </r>
       <r>   18.6760    0.0000 </r>
       <r>   22.2074    0.0000 </r>
       <r>   22.2074    0.0000 </r>
       <r>   22.3406    0.0000 </r>
       <r>   22.3848    0.0000 </r>
       <r>   22.7841    0.0000 </r>
       <r>   22.7841    0.0000 </r>
       <r>   26.0649    0.0000 </r>
       <r>   26.1255    0.0000 </r>
       <r>   26.3380    0.0000 </r>
       <r>   26.3380    0.0000 </r>
       <r>   27.1013    0.0000 </r>
       <r>   27.1013    0.0000 </r>
       <r>   27.2266    0.0000 </r>
       <r>   27.2266    0.0000 </r>
       <r>   27.3787    0.0000 </r>
       <r>   27.3865    0.0000 </r>
       <r>   28.3558    0.0000 </r>
       <r>   28.3558    0.0000 </r>
       <r>   30.9480    0.0000 </r>
       <r>   30.9484    0.0000 </r>
       <r>   31.0143    0.0000 </r>
       <r>   31.0621    0.0000 </r>
       <r>   31.4907    0.0000 </r>
       <r>   31.5028    0.0000 </r>
       <r>   33.0559    0.0000 </r>
       <r>   33.1998    0.0000 </r>
      </set>
      <set comment="kpoint 3">
       <r>   -9.2067    1.0000 </r>
       <r>   -9.2067    1.0000 </r>
       <r>   -2.2303    1.0000 </r>
       <r>   -2.2303    1.0000 </r>
       <r>    1.8428    1.0000 </r>
       <r>    1.8428    1.0000 </r>
       <r>    2.1129    1.0000 </r>
       <r>    2.1194    1.0000 </r>
       <r>    4.7068    0.0000 </r>
       <r>    4.7068    0.0000 </r>
       <r>    8.2869    0.0000 </r>
       <r>    8.2869    0.0000 </r>
       <r>    8.4892    0.0000 </r>
       <r>    8.4920    0.0000 </r>
       <r>    9.9194    0.0000 </r>
       <r>    9.9194    0.0000 </r>
       <r>   11.9004    0.0000 </r>
       <r>   11.9004    0.0000 </r>
       <r>   12.7217    0.0000 </r>
       <r>   12.7217    0.0000 </r>
       <r>   12.7601    0.0000 </r>
       <r>   12.8231    0.0000 </r>
       <r>   16.7947    0.0000 </r>
       <r>   16.7947    0.0000 </r>
       <r>   18.4508    0.0000 </r>
       <r>   18.4508    0.0000 </r>
       <r>   18.5449    0.0000 </r>
       <r>   18.6133    0.0000 </r>
       <r>   19.2724    0.0000 </r>
       <r>   19.2724    0.0000 </r>
       <r>   19.4846    0.0000 </r>
       <r>   19.4847    0.0000 </r>
       <r>   19.4949    0.0000 </r>
       <r>   19.5423    0.0000 </r>
       <r>   22.3949    0.0000 </r>
       <r>   22.3949    0.0000 </r>
       <r>   26.1461    0.0000 </r>
       <r>   26.3081    0.0000 </r>
       <r>   26.3790    0.0000 </r>
       <r>   26.3790    0.0000 </r>
       <r>   26.6078    0.0000 </r>
       <r>   26.6078    0.0000 </r>
       <r>   27.4069    0.0000 </r>
       <r>   27.4069    0.0000 </r>
       <r>   27.4572    0.0000 </r>
       <r>   27.5277    0.0000 </r>
       <r>   27.8137    0.0000 </r>
       <r>   27.8137    0.0000 </r>
       <r>   28.5010    0.0000 </r>
       <r>   28.5010    0.0000 </r>
       <r>   28.6262    0.0000 </r>
       <r>   28.6448    0.0000 </r>
       <r>   29.8915    0.0000 </r>
       <r>   29.8918    0.0000 </r>
       <r>   32.1602    0.0000 </r>
       <r>   32.2873    0.0000 </r>
      </set>
      <set comment="kpoint 4">
       <r>   -8.7380    1.0000 </r>
       <r>   -8.7380    1.0000 </r>
       <r>   -3.3591    1.0000 </r>
       <r>   -3.3591    1.0000 </r>
       <r>    1.6286    1.0000 </r>
       <r>    1.6286    1.0000 </r>
       <r>    1.9047    1.0000 </r>
       <r>    1.9047    1.0000 </r>
       <r>    4.5430    0.0000 </r>
       <r>    4.5430    0.0000 </r>
       <r>    8.2481    0.0000 </r>
       <r>    8.2481    0.0000 </r>
       <r>    8.4069    0.0000 </r>
       <r>    8.4069    0.0000 </r>
       <r>   10.5653    0.0000 </r>
       <r>   10.5653    0.0000 </r>
       <r>   12.9413    0.0000 </r>
       <r>   12.9413    0.0000 </r>
       <r>   14.5585    0.0000 </r>
       <r>   14.5585    0.0000 </r>
       <r>   14.7138    0.0000 </r>
       <r>   14.7138    0.0000 </r>
       <r>   15.7054    0.0000 </r>
       <r>   15.7054    0.0000 </r>
       <r>   15.7919    0.0000 </r>
       <r>   15.7919    0.0000 </r>
       <r>   15.8395    0.0000 </r>
       <r>   15.8395    0.0000 </r>
       <r>   21.5657    0.0000 </r>
       <r>   21.5657    0.0000 </r>
       <r>   22.7406    0.0000 </r>
       <r>   22.7406    0.0000 </r>
       <r>   22.9352    0.0000 </r>
       <r>   22.9352    0.0000 </r>
       <r>   22.9464    0.0000 </r>
       <r>   22.9464    0.0000 </r>
       <r>   23.5262    0.0000 </r>
       <r>   23.5262    0.0000 </r>
       <r>   23.5447    0.0000 </r>
       <r>   23.5447    0.0000 </r>
       <r>   26.0267    0.0000 </r>
       <r>   26.0268    0.0000 </r>
       <r>   27.0644    0.0000 </r>
       <r>   27.0644    0.0000 </r>
       <r>   27.3171    0.0000 </r>
       <r>   27.3171    0.0000 </r>
       <r>   27.5213    0.0000 </r>
       <r>   27.5213    0.0000 </r>
       <r>   27.9624    0.0000 </r>
       <r>   27.9624    0.0000 </r>
       <r>   28.2067    0.0000 </r>
       <r>   28.2070    0.0000 </r>
       <r>   28.2165    0.0000 </r>
       <r>   28.2169    0.0000 </r>
       <r>   31.3604    0.0000 </r>
       <r>   31.5077    0.0000 </r>
      </set>
      <set comment="kpoint 5">
       <r>   -9.2067    1.0000 </r>
       <r>   -9.2067    1.0000 </r>
       <r>   -2.2303    1.0000 </r>
       <r>   -2.2303    1.0000 </r>
       <r>    1.8428    1.0000 </r>
       <r>    1.8428    1.0000 </r>
       <r>    2.1129    1.0000 </r>
       <r>    2.1194    1.0000 </r>
       <r>    4.7068    0.0000 </r>
       <r>    4.7068    0.0000 </r>
       <r>    8.2869    0.0000 </r>
       <r>    8.2869    0.0000 </r>
       <r>    8.4892    0.0000 </r>
       <r>    8.4920    0.0000 </r>
       <r>    9.9194    0.0000 </r>
       <r>    9.9194    0.0000 </r>
       <r>   11.9004    0.0000 </r>
       <r>   11.9004    0.0000 </r>
       <r>   12.7217    0.0000 </r>
       <r>   12.7217    0.0000 </r>
       <r>   12.7601    0.0000 </r>
       <r>   12.8231    0.0000 </r>
       <r>   16.7947    0.0000 </r>
       <r>   16.7947    0.0000 </r>
       <r>   18.4508    0.0000 </r>
       <r>   18.4508    0.0000 </r>
       <r>   18.5449    0.0000 </r>
       <r>   18.6133    0.0000 </r>
       <r>   19.2724    0.0000 </r>
       <r>   19.2724    0.0000 </r>
       <r>   19.4846    0.0000 </r>
       <r>   19.4846    0.0000 </r>
       <r>   19.4949    0.0000 </r>
       <r>   19.5423    0.0000 </r>
       <r>   22.3949    0.0000 </r>
       <r>   22.3949    0.0000 </r>
       <r>   26.1461    0.0000 </r>
       <r>   26.3081    0.0000 </r>
       <r>   26.3790    0.0000 </r>
       <r>   26.3790    0.0000 </r>
       <r>   26.6078    0.0000 </r>
       <r>   26.6078    0.0000 </r>
       <r>   27.4069    0.0000 </r>
       <r>   27.4069    0.0000 </r>
       <r>   27.4572    0.0000 </r>
       <r>   27.5277    0.0000 </r>
       <r>   27.8137    0.0000 </r>
       <r>   27.8137    0.0000 </r>
       <r>   28.5010    0.0000 </r>
       <r>   28.5010    0.0000 </r>
       <r>   28.6262    0.0000 </r>
       <r>   28.6448    0.0000 </r>
       <r>   29.8916    0.0000 </r>
       <r>   29.8922    0.0000 </r>
       <r>   32.1345    0.0000 </r>
       <r>   32.2473    0.0000 </r>
      </set>
      <set comment="kpoint 6">
       <r>   -9.8859    1.0000 </r>
       <r>   -9.8859    1.0000 </r>
       <r>    0.2896    1.0000 </r>
       <r>    0.2896    1.0000 </r>
       <r>    2.3632    1.0000 </r>
       <r>    2.3632    1.0000 </r>
       <r>    2.6234    1.0000 </r>
       <r>    2.6315    1.0000 </r>
       <r>    4.8169    0.0000 </r>
       <r>    4.8169    0.0000 </r>
       <r>    7.8168    0.0000 </r>
       <r>    7.8168    0.0000 </r>
       <r>    8.0414    0.0000 </r>
       <r>    8.0414    0.0000 </r>
       <r>    8.1687    0.0000 </r>
       <r>    8.1708    0.0000 </r>
       <r>   12.1768    0.0000 </r>
       <r>   12.2095    0.0000 </r>
       <r>   12.2095    0.0000 </r>
       <r>   12.2445    0.0000 </r>
       <r>   12.3961    0.0000 </r>
       <r>   12.3961    0.0000 </r>
       <r>   13.8023    0.0000 </r>
       <r>   13.8023    0.0000 </r>
       <r>   16.2668    0.0000 </r>
       <r>   16.2729    0.0000 </r>
       <r>   16.2729    0.0000 </r>
       <r>   16.3342    0.0000 </r>
       <r>   18.6760    0.0000 </r>
       <r>   18.6760    0.0000 </r>
       <r>   22.2074    0.0000 </r>
       <r>   22.2074    0.0000 </r>
       <r>   22.3406    0.0000 </r>
       <r>   22.3848    0.0000 </r>
       <r>   22.7841    0.0000 </r>
       <r>   22.7841    0.0000 </r>
       <r>   26.0649    0.0000 </r>
       <r>   26.1255    0.0000 </r>
       <r>   26.3380    0.0000 </r>
       <r>   26.3380    0.0000 </r>
       <r>   27.1013    0.0000 </r>
       <r>   27.1013    0.0000 </r>
       <r>   27.2266    0.0000 </r>
       <r>   27.2266    0.0000 </r>
       <r>   27.3787    0.0000 </r>
       <r>   27.3865    0.0000 </r>
       <r>   28.3558    0.0000 </r>
       <r>   28.3558    0.0000 </r>
       <r>   30.9482    0.0000 </r>
       <r>   30.9497    0.0000 </r>
       <r>   31.0144    0.0000 </r>
       <r>   31.0625    0.0000 </r>
       <r>   31.4910    0.0000 </r>
       <r>   31.4970    0.0000 </r>
       <r>   33.0843    0.0000 </r>
       <r>   33.1791    0.0000 </r>
      </set>
      <set comment="kpoint 7">
       <r>   -9.7947    1.0000 </r>
       <r>   -9.7947    1.0000 </r>
       <r>    0.2658    1.0000 </r>
       <r>    0.2658    1.0000 </r>
       <r>    1.8729    1.0000 </r>
       <r>    1.8729    1.0000 </r>
       <r>    2.0202    1.0000 </r>
       <r>    2.0202    1.0000 </r>
       <r>    5.8279    0.0000 </r>
       <r>    5.8279    0.0000 </r>
       <r>    6.4590    0.0000 </r>
       <r>    6.4590    0.0000 </r>
       <r>    8.7800    0.0000 </r>
       <r>    8.7800    0.0000 </r>
       <r>    8.9688    0.0000 </r>
       <r>    8.9688    0.0000 </r>
       <r>   10.6832    0.0000 </r>
       <r>   10.6832    0.0000 </r>
       <r>   13.3486    0.0000 </r>
       <r>   13.3486    0.0000 </r>
       <r>   13.5768    0.0000 </r>
       <r>   13.5768    0.0000 </r>
       <r>   15.0306    0.0000 </r>
       <r>   15.0306    0.0000 </r>
       <r>   15.0666    0.0000 </r>
       <r>   15.0666    0.0000 </r>
       <r>   15.6589    0.0000 </r>
       <r>   15.6589    0.0000 </r>
       <r>   19.8771    0.0000 </r>
       <r>   19.8772    0.0000 </r>
       <r>   21.9433    0.0000 </r>
       <r>   21.9433    0.0000 </r>
       <r>   22.1366    0.0000 </r>
       <r>   22.1366    0.0000 </r>
       <r>   22.7675    0.0000 </r>
       <r>   22.7675    0.0000 </r>
       <r>   23.6093    0.0000 </r>
       <r>   23.6093    0.0000 </r>
       <r>   26.0435    0.0000 </r>
       <r>   26.0435    0.0000 </r>
       <r>   27.0212    0.0000 </r>
       <r>   27.0212    0.0000 </r>
       <r>   27.2160    0.0000 </r>
       <r>   27.2160    0.0000 </r>
       <r>   28.1652    0.0000 </r>
       <r>   28.1652    0.0000 </r>
       <r>   30.5668    0.0000 </r>
       <r>   30.5738    0.0000 </r>
       <r>   30.6690    0.0000 </r>
       <r>   30.6860    0.0000 </r>
       <r>   31.2436    0.0000 </r>
       <r>   31.2790    0.0000 </r>
       <r>   31.4257    0.0000 </r>
       <r>   31.4901    0.0000 </r>
       <r>   32.1058    0.0000 </r>
       <r>   32.6750    0.0000 </r>
      </set>
      <set comment="kpoint 8">
       <r>   -9.2408    1.0000 </r>
       <r>   -9.2366    1.0000 </r>
       <r>   -1.6488    1.0000 </r>
       <r>   -1.6387    1.0000 </r>
       <r>    1.1605    1.0000 </r>
       <r>    1.1793    1.0000 </r>
       <r>    1.4382    1.0000 </r>
       <r>    1.4415    1.0000 </r>
       <r>    5.9767    0.0000 </r>
       <r>    5.9912    0.0000 </r>
       <r>    7.1252    0.0000 </r>
       <r>    7.1261    0.0000 </r>
       <r>    9.0164    0.0000 </r>
       <r>    9.0499    0.0000 </r>
       <r>    9.5827    0.0000 </r>
       <r>    9.5918    0.0000 </r>
       <r>   11.6908    0.0000 </r>
       <r>   11.7056    0.0000 </r>
       <r>   13.7857    0.0000 </r>
       <r>   13.8258    0.0000 </r>
       <r>   13.8446    0.0000 </r>
       <r>   13.8777    0.0000 </r>
       <r>   16.1669    0.0000 </r>
       <r>   16.1921    0.0000 </r>
       <r>   17.3891    0.0000 </r>
       <r>   17.4239    0.0000 </r>
       <r>   18.4479    0.0000 </r>
       <r>   18.4507    0.0000 </r>
       <r>   18.6527    0.0000 </r>
       <r>   18.7026    0.0000 </r>
       <r>   18.8488    0.0000 </r>
       <r>   18.8577    0.0000 </r>
       <r>   22.3575    0.0000 </r>
       <r>   22.4652    0.0000 </r>
       <r>   22.8994    0.0000 </r>
       <r>   22.9393    0.0000 </r>
       <r>   23.1841    0.0000 </r>
       <r>   23.1843    0.0000 </r>
       <r>   23.9855    0.0000 </r>
       <r>   24.0214    0.0000 </r>
       <r>   26.5071    0.0000 </r>
       <r>   26.5561    0.0000 </r>
       <r>   27.2177    0.0000 </r>
       <r>   27.2342    0.0000 </r>
       <r>   27.6884    0.0000 </r>
       <r>   27.7096    0.0000 </r>
       <r>   29.0701    0.0000 </r>
       <r>   29.1507    0.0000 </r>
       <r>   29.5177    0.0000 </r>
       <r>   29.5255    0.0000 </r>
       <r>   30.4241    0.0000 </r>
       <r>   30.4326    0.0000 </r>
       <r>   30.8556    0.0000 </r>
       <r>   31.0007    0.0000 </r>
       <r>   31.2777    0.0000 </r>
       <r>   31.4876    0.0000 </r>
      </set>
      <set comment="kpoint 9">
       <r>   -8.6311    1.0000 </r>
       <r>   -8.6188    1.0000 </r>
       <r>   -3.1361    1.0000 </r>
       <r>   -3.1068    1.0000 </r>
       <r>    0.4622    1.0000 </r>
       <r>    0.4731    1.0000 </r>
       <r>    1.3299    1.0000 </r>
       <r>    1.3326    1.0000 </r>
       <r>    5.8099    0.0000 </r>
       <r>    5.8108    0.0000 </r>
       <r>    7.8599    0.0000 </r>
       <r>    7.8970    0.0000 </r>
       <r>    9.3064    0.0000 </r>
       <r>    9.3077    0.0000 </r>
       <r>   10.1639    0.0000 </r>
       <r>   10.2287    0.0000 </r>
       <r>   12.6489    0.0000 </r>
       <r>   12.7523    0.0000 </r>
       <r>   14.2371    0.0000 </r>
       <r>   14.2938    0.0000 </r>
       <r>   14.6891    0.0000 </r>
       <r>   14.7223    0.0000 </r>
       <r>   15.6361    0.0000 </r>
       <r>   15.7037    0.0000 </r>
       <r>   16.1575    0.0000 </r>
       <r>   16.1861    0.0000 </r>
       <r>   19.2030    0.0000 </r>
       <r>   19.3247    0.0000 </r>
       <r>   20.4874    0.0000 </r>
       <r>   20.5339    0.0000 </r>
       <r>   20.8126    0.0000 </r>
       <r>   20.8519    0.0000 </r>
       <r>   21.9443    0.0000 </r>
       <r>   21.9605    0.0000 </r>
       <r>   22.7444    0.0000 </r>
       <r>   22.7886    0.0000 </r>
       <r>   23.4455    0.0000 </r>
       <r>   23.5025    0.0000 </r>
       <r>   24.3610    0.0000 </r>
       <r>   24.3666    0.0000 </r>
       <r>   25.0629    0.0000 </r>
       <r>   25.1940    0.0000 </r>
       <r>   26.2527    0.0000 </r>
       <r>   26.2935    0.0000 </r>
       <r>   26.6276    0.0000 </r>
       <r>   26.6341    0.0000 </r>
       <r>   27.2975    0.0000 </r>
       <r>   27.3674    0.0000 </r>
       <r>   27.8364    0.0000 </r>
       <r>   27.9464    0.0000 </r>
       <r>   29.1126    0.0000 </r>
       <r>   29.1599    0.0000 </r>
       <r>   29.3214    0.0000 </r>
       <r>   29.3873    0.0000 </r>
       <r>   30.1331    0.0000 </r>
       <r>   30.5808    0.0000 </r>
      </set>
      <set comment="kpoint 10">
       <r>   -8.7981    1.0000 </r>
       <r>   -8.7870    1.0000 </r>
       <r>   -2.7767    1.0000 </r>
       <r>   -2.7454    1.0000 </r>
       <r>    0.2881    1.0000 </r>
       <r>    0.2913    1.0000 </r>
       <r>    1.7270    1.0000 </r>
       <r>    1.7343    1.0000 </r>
       <r>    5.9105    0.0000 </r>
       <r>    5.9283    0.0000 </r>
       <r>    8.1244    0.0000 </r>
       <r>    8.1333    0.0000 </r>
       <r>    8.9297    0.0000 </r>
       <r>    8.9309    0.0000 </r>
       <r>   10.0074    0.0000 </r>
       <r>   10.0443    0.0000 </r>
       <r>   12.2394    0.0000 </r>
       <r>   12.2660    0.0000 </r>
       <r>   13.1648    0.0000 </r>
       <r>   13.2698    0.0000 </r>
       <r>   14.4618    0.0000 </r>
       <r>   14.5413    0.0000 </r>
       <r>   15.8239    0.0000 </r>
       <r>   15.9093    0.0000 </r>
       <r>   17.8050    0.0000 </r>
       <r>   17.8376    0.0000 </r>
       <r>   18.9504    0.0000 </r>
       <r>   19.0105    0.0000 </r>
       <r>   19.1449    0.0000 </r>
       <r>   19.1657    0.0000 </r>
       <r>   20.4884    0.0000 </r>
       <r>   20.5210    0.0000 </r>
       <r>   22.2300    0.0000 </r>
       <r>   22.2827    0.0000 </r>
       <r>   23.3527    0.0000 </r>
       <r>   23.3666    0.0000 </r>
       <r>   23.7711    0.0000 </r>
       <r>   23.9436    0.0000 </r>
       <r>   24.6712    0.0000 </r>
       <r>   24.7696    0.0000 </r>
       <r>   25.1063    0.0000 </r>
       <r>   25.1387    0.0000 </r>
       <r>   25.2103    0.0000 </r>
       <r>   25.2480    0.0000 </r>
       <r>   27.2796    0.0000 </r>
       <r>   27.3376    0.0000 </r>
       <r>   27.4186    0.0000 </r>
       <r>   27.4622    0.0000 </r>
       <r>   27.9887    0.0000 </r>
       <r>   27.9891    0.0000 </r>
       <r>   29.0766    0.0000 </r>
       <r>   29.0926    0.0000 </r>
       <r>   29.4789    0.0000 </r>
       <r>   29.5199    0.0000 </r>
       <r>   31.3742    0.0000 </r>
       <r>   31.7757    0.0000 </r>
      </set>
      <set comment="kpoint 11">
       <r>   -9.4730    1.0000 </r>
       <r>   -9.4692    1.0000 </r>
       <r>   -1.0749    1.0000 </r>
       <r>   -1.0620    1.0000 </r>
       <r>    0.9992    1.0000 </r>
       <r>    1.0091    1.0000 </r>
       <r>    2.3437    1.0000 </r>
       <r>    2.3546    1.0000 </r>
       <r>    5.8365    0.0000 </r>
       <r>    5.8640    0.0000 </r>
       <r>    7.8040    0.0000 </r>
       <r>    7.9475    0.0000 </r>
       <r>    8.3111    0.0000 </r>
       <r>    8.3403    0.0000 </r>
       <r>    8.8379    0.0000 </r>
       <r>    8.9196    0.0000 </r>
       <r>   11.2902    0.0000 </r>
       <r>   11.3228    0.0000 </r>
       <r>   12.9002    0.0000 </r>
       <r>   12.9021    0.0000 </r>
       <r>   13.9674    0.0000 </r>
       <r>   14.0082    0.0000 </r>
       <r>   14.9977    0.0000 </r>
       <r>   15.0293    0.0000 </r>
       <r>   16.5249    0.0000 </r>
       <r>   16.5991    0.0000 </r>
       <r>   18.3637    0.0000 </r>
       <r>   18.4519    0.0000 </r>
       <r>   18.9793    0.0000 </r>
       <r>   19.0218    0.0000 </r>
       <r>   21.0110    0.0000 </r>
       <r>   21.0201    0.0000 </r>
       <r>   22.2879    0.0000 </r>
       <r>   22.3543    0.0000 </r>
       <r>   22.5413    0.0000 </r>
       <r>   22.5491    0.0000 </r>
       <r>   22.8410    0.0000 </r>
       <r>   22.8948    0.0000 </r>
       <r>   24.1375    0.0000 </r>
       <r>   24.2472    0.0000 </r>
       <r>   27.1304    0.0000 </r>
       <r>   27.2360    0.0000 </r>
       <r>   27.4465    0.0000 </r>
       <r>   27.4887    0.0000 </r>
       <r>   28.3307    0.0000 </r>
       <r>   28.4194    0.0000 </r>
       <r>   29.3048    0.0000 </r>
       <r>   29.3298    0.0000 </r>
       <r>   30.3366    0.0000 </r>
       <r>   30.4070    0.0000 </r>
       <r>   30.6666    0.0000 </r>
       <r>   30.6981    0.0000 </r>
       <r>   31.5765    0.0000 </r>
       <r>   31.6805    0.0000 </r>
       <r>   32.1672    0.0000 </r>
       <r>   32.2734    0.0000 </r>
      </set>
      <set comment="kpoint 12">
       <r>   -8.8611    1.0000 </r>
       <r>   -8.8611    1.0000 </r>
       <r>   -2.2044    1.0000 </r>
       <r>   -2.2044    1.0000 </r>
       <r>    0.7488    1.0000 </r>
       <r>    0.7488    1.0000 </r>
       <r>    0.8084    1.0000 </r>
       <r>    0.8084    1.0000 </r>
       <r>    5.3404    0.0000 </r>
       <r>    5.3404    0.0000 </r>
       <r>    6.1846    0.0000 </r>
       <r>    6.1846    0.0000 </r>
       <r>   11.1442    0.0000 </r>
       <r>   11.1442    0.0000 </r>
       <r>   11.2999    0.0000 </r>
       <r>   11.2999    0.0000 </r>
       <r>   11.4215    0.0000 </r>
       <r>   11.4215    0.0000 </r>
       <r>   14.5136    0.0000 </r>
       <r>   14.5136    0.0000 </r>
       <r>   16.3272    0.0000 </r>
       <r>   16.3272    0.0000 </r>
       <r>   17.4464    0.0000 </r>
       <r>   17.4464    0.0000 </r>
       <r>   17.5156    0.0000 </r>
       <r>   17.5156    0.0000 </r>
       <r>   17.9369    0.0000 </r>
       <r>   17.9369    0.0000 </r>
       <r>   18.2983    0.0000 </r>
       <r>   18.2983    0.0000 </r>
       <r>   18.4732    0.0000 </r>
       <r>   18.4732    0.0000 </r>
       <r>   19.5326    0.0000 </r>
       <r>   19.5326    0.0000 </r>
       <r>   20.3469    0.0000 </r>
       <r>   20.3469    0.0000 </r>
       <r>   25.2446    0.0000 </r>
       <r>   25.2447    0.0000 </r>
       <r>   25.5922    0.0000 </r>
       <r>   25.5922    0.0000 </r>
       <r>   25.7917    0.0000 </r>
       <r>   25.7917    0.0000 </r>
       <r>   25.9206    0.0000 </r>
       <r>   25.9206    0.0000 </r>
       <r>   27.3334    0.0000 </r>
       <r>   27.3334    0.0000 </r>
       <r>   27.4217    0.0000 </r>
       <r>   27.4217    0.0000 </r>
       <r>   28.4758    0.0000 </r>
       <r>   28.4758    0.0000 </r>
       <r>   28.6356    0.0000 </r>
       <r>   28.6356    0.0000 </r>
       <r>   29.3104    0.0000 </r>
       <r>   29.3104    0.0000 </r>
       <r>   32.5017    0.0000 </r>
       <r>   32.6569    0.0000 </r>
      </set>
      <set comment="kpoint 13">
       <r>   -8.3545    1.0000 </r>
       <r>   -8.3403    1.0000 </r>
       <r>   -3.1166    1.0000 </r>
       <r>   -3.0827    1.0000 </r>
       <r>   -0.1546    1.0000 </r>
       <r>   -0.1459    1.0000 </r>
       <r>    0.6238    1.0000 </r>
       <r>    0.6240    1.0000 </r>
       <r>    5.5153    0.0000 </r>
       <r>    5.5350    0.0000 </r>
       <r>    6.8578    0.0000 </r>
       <r>    6.8807    0.0000 </r>
       <r>   10.6937    0.0000 </r>
       <r>   10.7552    0.0000 </r>
       <r>   11.5304    0.0000 </r>
       <r>   11.5480    0.0000 </r>
       <r>   13.1484    0.0000 </r>
       <r>   13.2688    0.0000 </r>
       <r>   15.0387    0.0000 </r>
       <r>   15.0699    0.0000 </r>
       <r>   15.7758    0.0000 </r>
       <r>   15.8849    0.0000 </r>
       <r>   16.4790    0.0000 </r>
       <r>   16.4854    0.0000 </r>
       <r>   17.0338    0.0000 </r>
       <r>   17.0654    0.0000 </r>
       <r>   18.8940    0.0000 </r>
       <r>   18.9276    0.0000 </r>
       <r>   19.4161    0.0000 </r>
       <r>   19.4804    0.0000 </r>
       <r>   20.3112    0.0000 </r>
       <r>   20.3258    0.0000 </r>
       <r>   20.5488    0.0000 </r>
       <r>   20.5849    0.0000 </r>
       <r>   21.5612    0.0000 </r>
       <r>   21.5876    0.0000 </r>
       <r>   22.1472    0.0000 </r>
       <r>   22.2246    0.0000 </r>
       <r>   24.0020    0.0000 </r>
       <r>   24.0315    0.0000 </r>
       <r>   24.2195    0.0000 </r>
       <r>   24.3319    0.0000 </r>
       <r>   24.7682    0.0000 </r>
       <r>   24.8426    0.0000 </r>
       <r>   26.5412    0.0000 </r>
       <r>   26.6113    0.0000 </r>
       <r>   27.1630    0.0000 </r>
       <r>   27.1766    0.0000 </r>
       <r>   28.5905    0.0000 </r>
       <r>   28.6214    0.0000 </r>
       <r>   28.8532    0.0000 </r>
       <r>   28.8978    0.0000 </r>
       <r>   30.4507    0.0000 </r>
       <r>   30.5072    0.0000 </r>
       <r>   30.6514    0.0000 </r>
       <r>   31.8400    0.0000 </r>
      </set>
      <set comment="kpoint 14">
       <r>   -8.3220    1.0000 </r>
       <r>   -8.2997    1.0000 </r>
       <r>   -3.1576    1.0000 </r>
       <r>   -3.0942    1.0000 </r>
       <r>   -0.7902    1.0000 </r>
       <r>   -0.7793    1.0000 </r>
       <r>    1.0233    1.0000 </r>
       <r>    1.0274    1.0000 </r>
       <r>    5.8926    0.0000 </r>
       <r>    5.9042    0.0000 </r>
       <r>    8.7801    0.0000 </r>
       <r>    8.9099    0.0000 </r>
       <r>   10.4496    0.0000 </r>
       <r>   10.5005    0.0000 </r>
       <r>   10.5566    0.0000 </r>
       <r>   10.7062    0.0000 </r>
       <r>   11.0976    0.0000 </r>
       <r>   11.2063    0.0000 </r>
       <r>   12.8437    0.0000 </r>
       <r>   12.8789    0.0000 </r>
       <r>   16.6796    0.0000 </r>
       <r>   16.6891    0.0000 </r>
       <r>   17.1102    0.0000 </r>
       <r>   17.1474    0.0000 </r>
       <r>   18.4015    0.0000 </r>
       <r>   18.4731    0.0000 </r>
       <r>   19.1130    0.0000 </r>
       <r>   19.1396    0.0000 </r>
       <r>   19.5017    0.0000 </r>
       <r>   19.5261    0.0000 </r>
       <r>   20.0321    0.0000 </r>
       <r>   20.1429    0.0000 </r>
       <r>   21.4643    0.0000 </r>
       <r>   21.6915    0.0000 </r>
       <r>   22.8654    0.0000 </r>
       <r>   22.9084    0.0000 </r>
       <r>   23.2657    0.0000 </r>
       <r>   23.2982    0.0000 </r>
       <r>   23.9110    0.0000 </r>
       <r>   23.9364    0.0000 </r>
       <r>   24.0412    0.0000 </r>
       <r>   24.0771    0.0000 </r>
       <r>   24.9226    0.0000 </r>
       <r>   25.0051    0.0000 </r>
       <r>   26.0936    0.0000 </r>
       <r>   26.1134    0.0000 </r>
       <r>   26.7005    0.0000 </r>
       <r>   26.7545    0.0000 </r>
       <r>   27.5122    0.0000 </r>
       <r>   27.5541    0.0000 </r>
       <r>   28.5771    0.0000 </r>
       <r>   28.5975    0.0000 </r>
       <r>   28.8813    0.0000 </r>
       <r>   28.9084    0.0000 </r>
       <r>   29.3821    0.0000 </r>
       <r>   29.3962    0.0000 </r>
      </set>
      <set comment="kpoint 15">
       <r>   -8.7981    1.0000 </r>
       <r>   -8.7870    1.0000 </r>
       <r>   -2.7767    1.0000 </r>
       <r>   -2.7454    1.0000 </r>
       <r>    0.2881    1.0000 </r>
       <r>    0.2913    1.0000 </r>
       <r>    1.7270    1.0000 </r>
       <r>    1.7343    1.0000 </r>
       <r>    5.9105    0.0000 </r>
       <r>    5.9283    0.0000 </r>
       <r>    8.1244    0.0000 </r>
       <r>    8.1333    0.0000 </r>
       <r>    8.9297    0.0000 </r>
       <r>    8.9309    0.0000 </r>
       <r>   10.0074    0.0000 </r>
       <r>   10.0443    0.0000 </r>
       <r>   12.2394    0.0000 </r>
       <r>   12.2660    0.0000 </r>
       <r>   13.1648    0.0000 </r>
       <r>   13.2698    0.0000 </r>
       <r>   14.4618    0.0000 </r>
       <r>   14.5413    0.0000 </r>
       <r>   15.8239    0.0000 </r>
       <r>   15.9093    0.0000 </r>
       <r>   17.8050    0.0000 </r>
       <r>   17.8376    0.0000 </r>
       <r>   18.9504    0.0000 </r>
       <r>   19.0105    0.0000 </r>
       <r>   19.1449    0.0000 </r>
       <r>   19.1657    0.0000 </r>
       <r>   20.4884    0.0000 </r>
       <r>   20.5210    0.0000 </r>
       <r>   22.2300    0.0000 </r>
       <r>   22.2827    0.0000 </r>
       <r>   23.3527    0.0000 </r>
       <r>   23.3666    0.0000 </r>
       <r>   23.7711    0.0000 </r>
       <r>   23.9436    0.0000 </r>
       <r>   24.6712    0.0000 </r>
       <r>   24.7696    0.0000 </r>
       <r>   25.1063    0.0000 </r>
       <r>   25.1387    0.0000 </r>
       <r>   25.2103    0.0000 </r>
       <r>   25.2480    0.0000 </r>
       <r>   27.2796    0.0000 </r>
       <r>   27.3376    0.0000 </r>
       <r>   27.4186    0.0000 </r>
       <r>   27.4622    0.0000 </r>
       <r>   27.9887    0.0000 </r>
       <r>   27.9892    0.0000 </r>
       <r>   29.0763    0.0000 </r>
       <r>   29.0926    0.0000 </r>
       <r>   29.4790    0.0000 </r>
       <r>   29.5197    0.0000 </r>
       <r>   31.3261    0.0000 </r>
       <r>   31.6965    0.0000 </r>
      </set>
      <set comment="kpoint 16">
       <r>   -8.1716    1.0000 </r>
       <r>   -8.1716    1.0000 </r>
       <r>   -3.4291    1.0000 </r>
       <r>   -3.4291    1.0000 </r>
       <r>    0.3191    1.0000 </r>
       <r>    0.3191    1.0000 </r>
       <r>    0.3386    1.0000 </r>
       <r>    0.3386    1.0000 </r>
       <r>    5.0105    0.0000 </r>
       <r>    5.0105    0.0000 </r>
       <r>    5.6071    0.0000 </r>
       <r>    5.6071    0.0000 </r>
       <r>   13.0717    0.0000 </r>
       <r>   13.0717    0.0000 </r>
       <r>   13.2462    0.0000 </r>
       <r>   13.2462    0.0000 </r>
       <r>   13.4079    0.0000 </r>
       <r>   13.4079    0.0000 </r>
       <r>   15.4408    0.0000 </r>
       <r>   15.4408    0.0000 </r>
       <r>   15.8602    0.0000 </r>
       <r>   15.8602    0.0000 </r>
       <r>   15.8974    0.0000 </r>
       <r>   15.8974    0.0000 </r>
       <r>   16.2232    0.0000 </r>
       <r>   16.2232    0.0000 </r>
       <r>   17.8340    0.0000 </r>
       <r>   17.8340    0.0000 </r>
       <r>   20.6027    0.0000 </r>
       <r>   20.6027    0.0000 </r>
       <r>   21.1109    0.0000 </r>
       <r>   21.1109    0.0000 </r>
       <r>   21.1952    0.0000 </r>
       <r>   21.1952    0.0000 </r>
       <r>   21.3537    0.0000 </r>
       <r>   21.3537    0.0000 </r>
       <r>   21.5861    0.0000 </r>
       <r>   21.5861    0.0000 </r>
       <r>   21.6506    0.0000 </r>
       <r>   21.6506    0.0000 </r>
       <r>   22.2800    0.0000 </r>
       <r>   22.2800    0.0000 </r>
       <r>   23.5384    0.0000 </r>
       <r>   23.5384    0.0000 </r>
       <r>   27.4975    0.0000 </r>
       <r>   27.4975    0.0000 </r>
       <r>   27.8079    0.0000 </r>
       <r>   27.8079    0.0000 </r>
       <r>   28.7556    0.0000 </r>
       <r>   28.7556    0.0000 </r>
       <r>   28.8621    0.0000 </r>
       <r>   28.8621    0.0000 </r>
       <r>   32.5752    0.0000 </r>
       <r>   32.6233    0.0000 </r>
       <r>   32.8876    0.0000 </r>
       <r>   32.9501    0.0000 </r>
      </set>
      <set comment="kpoint 17">
       <r>   -8.3545    1.0000 </r>
       <r>   -8.3403    1.0000 </r>
       <r>   -3.1166    1.0000 </r>
       <r>   -3.0826    1.0000 </r>
       <r>   -0.1546    1.0000 </r>
       <r>   -0.1459    1.0000 </r>
       <r>    0.6238    1.0000 </r>
       <r>    0.6240    1.0000 </r>
       <r>    5.5153    0.0000 </r>
       <r>    5.5350    0.0000 </r>
       <r>    6.8578    0.0000 </r>
       <r>    6.8807    0.0000 </r>
       <r>   10.6937    0.0000 </r>
       <r>   10.7552    0.0000 </r>
       <r>   11.5304    0.0000 </r>
       <r>   11.5480    0.0000 </r>
       <r>   13.1484    0.0000 </r>
       <r>   13.2688    0.0000 </r>
       <r>   15.0387    0.0000 </r>
       <r>   15.0699    0.0000 </r>
       <r>   15.7758    0.0000 </r>
       <r>   15.8849    0.0000 </r>
       <r>   16.4790    0.0000 </r>
       <r>   16.4854    0.0000 </r>
       <r>   17.0338    0.0000 </r>
       <r>   17.0654    0.0000 </r>
       <r>   18.8940    0.0000 </r>
       <r>   18.9276    0.0000 </r>
       <r>   19.4161    0.0000 </r>
       <r>   19.4804    0.0000 </r>
       <r>   20.3112    0.0000 </r>
       <r>   20.3258    0.0000 </r>
       <r>   20.5488    0.0000 </r>
       <r>   20.5849    0.0000 </r>
       <r>   21.5612    0.0000 </r>
       <r>   21.5876    0.0000 </r>
       <r>   22.1472    0.0000 </r>
       <r>   22.2246    0.0000 </r>
       <r>   24.0020    0.0000 </r>
       <r>   24.0315    0.0000 </r>
       <r>   24.2195    0.0000 </r>
       <r>   24.3319    0.0000 </r>
       <r>   24.7682    0.0000 </r>
       <r>   24.8426    0.0000 </r>
       <r>   26.5412    0.0000 </r>
       <r>   26.6113    0.0000 </r>
       <r>   27.1630    0.0000 </r>
       <r>   27.1766    0.0000 </r>
       <r>   28.5905    0.0000 </r>
       <r>   28.6212    0.0000 </r>
       <r>   28.8528    0.0000 </r>
       <r>   28.8960    0.0000 </r>
       <r>   30.4490    0.0000 </r>
       <r>   30.4831    0.0000 </r>
       <r>   30.6521    0.0000 </r>
       <r>   30.8327    0.0000 </r>
      </set>
      <set comment="kpoint 18">
       <r>   -8.6311    1.0000 </r>
       <r>   -8.6188    1.0000 </r>
       <r>   -3.1361    1.0000 </r>
       <r>   -3.1068    1.0000 </r>
       <r>    0.4622    1.0000 </r>
       <r>    0.4731    1.0000 </r>
       <r>    1.3299    1.0000 </r>
       <r>    1.3326    1.0000 </r>
       <r>    5.8099    0.0000 </r>
       <r>    5.8108    0.0000 </r>
       <r>    7.8599    0.0000 </r>
       <r>    7.8970    0.0000 </r>
       <r>    9.3064    0.0000 </r>
       <r>    9.3077    0.0000 </r>
       <r>   10.1639    0.0000 </r>
       <r>   10.2287    0.0000 </r>
       <r>   12.6489    0.0000 </r>
       <r>   12.7523    0.0000 </r>
       <r>   14.2371    0.0000 </r>
       <r>   14.2938    0.0000 </r>
       <r>   14.6891    0.0000 </r>
       <r>   14.7223    0.0000 </r>
       <r>   15.6361    0.0000 </r>
       <r>   15.7037    0.0000 </r>
       <r>   16.1575    0.0000 </r>
       <r>   16.1861    0.0000 </r>
       <r>   19.2030    0.0000 </r>
       <r>   19.3247    0.0000 </r>
       <r>   20.4874    0.0000 </r>
       <r>   20.5339    0.0000 </r>
       <r>   20.8126    0.0000 </r>
       <r>   20.8519    0.0000 </r>
       <r>   21.9443    0.0000 </r>
       <r>   21.9605    0.0000 </r>
       <r>   22.7444    0.0000 </r>
       <r>   22.7886    0.0000 </r>
       <r>   23.4455    0.0000 </r>
       <r>   23.5025    0.0000 </r>
       <r>   24.3610    0.0000 </r>
       <r>   24.3666    0.0000 </r>
       <r>   25.0629    0.0000 </r>
       <r>   25.1940    0.0000 </r>
       <r>   26.2527    0.0000 </r>
       <r>   26.2935    0.0000 </r>
       <r>   26.6276    0.0000 </r>
       <r>   26.6340    0.0000 </r>
       <r>   27.2974    0.0000 </r>
       <r>   27.3673    0.0000 </r>
       <r>   27.8365    0.0000 </r>
       <r>   27.9464    0.0000 </r>
       <r>   29.1130    0.0000 </r>
       <r>   29.1419    0.0000 </r>
       <r>   29.3196    0.0000 </r>
       <r>   29.3740    0.0000 </r>
       <r>   30.1217    0.0000 </r>
       <r>   30.2585    0.0000 </r>
      </set>
      <set comment="kpoint 19">
       <r>   -9.2408    1.0000 </r>
       <r>   -9.2366    1.0000 </r>
       <r>   -1.6488    1.0000 </r>
       <r>   -1.6387    1.0000 </r>
       <r>    1.1605    1.0000 </r>
       <r>    1.1793    1.0000 </r>
       <r>    1.4382    1.0000 </r>
       <r>    1.4415    1.0000 </r>
       <r>    5.9767    0.0000 </r>
       <r>    5.9912    0.0000 </r>
       <r>    7.1252    0.0000 </r>
       <r>    7.1261    0.0000 </r>
       <r>    9.0164    0.0000 </r>
       <r>    9.0499    0.0000 </r>
       <r>    9.5827    0.0000 </r>
       <r>    9.5918    0.0000 </r>
       <r>   11.6908    0.0000 </r>
       <r>   11.7056    0.0000 </r>
       <r>   13.7857    0.0000 </r>
       <r>   13.8258    0.0000 </r>
       <r>   13.8446    0.0000 </r>
       <r>   13.8777    0.0000 </r>
       <r>   16.1669    0.0000 </r>
       <r>   16.1921    0.0000 </r>
       <r>   17.3891    0.0000 </r>
       <r>   17.4239    0.0000 </r>
       <r>   18.4479    0.0000 </r>
       <r>   18.4507    0.0000 </r>
       <r>   18.6527    0.0000 </r>
       <r>   18.7026    0.0000 </r>
       <r>   18.8488    0.0000 </r>
       <r>   18.8577    0.0000 </r>
       <r>   22.3575    0.0000 </r>
       <r>   22.4652    0.0000 </r>
       <r>   22.8994    0.0000 </r>
       <r>   22.9393    0.0000 </r>
       <r>   23.1841    0.0000 </r>
       <r>   23.1843    0.0000 </r>
       <r>   23.9855    0.0000 </r>
       <r>   24.0214    0.0000 </r>
       <r>   26.5071    0.0000 </r>
       <r>   26.5561    0.0000 </r>
       <r>   27.2177    0.0000 </r>
       <r>   27.2342    0.0000 </r>
       <r>   27.6884    0.0000 </r>
       <r>   27.7096    0.0000 </r>
       <r>   29.0701    0.0000 </r>
       <r>   29.1508    0.0000 </r>
       <r>   29.5166    0.0000 </r>
       <r>   29.5244    0.0000 </r>
       <r>   30.4209    0.0000 </r>
       <r>   30.4569    0.0000 </r>
       <r>   30.8538    0.0000 </r>
       <r>   30.9637    0.0000 </r>
       <r>   31.2972    0.0000 </r>
       <r>   31.3565    0.0000 </r>
      </set>
      <set comment="kpoint 20">
       <r>   -8.6807    1.0000 </r>
       <r>   -8.6676    1.0000 </r>
       <r>   -2.6197    1.0000 </r>
       <r>   -2.5815    1.0000 </r>
       <r>   -0.0715    1.0000 </r>
       <r>   -0.0648    1.0000 </r>
       <r>    0.9755    1.0000 </r>
       <r>    1.0000    1.0000 </r>
       <r>    6.9560    0.0000 </r>
       <r>    7.0176    0.0000 </r>
       <r>    7.1060    0.0000 </r>
       <r>    7.1516    0.0000 </r>
       <r>    8.4725    0.0000 </r>
       <r>    8.5996    0.0000 </r>
       <r>   11.0805    0.0000 </r>
       <r>   11.2230    0.0000 </r>
       <r>   12.0761    0.0000 </r>
       <r>   12.1229    0.0000 </r>
       <r>   14.3195    0.0000 </r>
       <r>   14.4609    0.0000 </r>
       <r>   15.8072    0.0000 </r>
       <r>   15.8908    0.0000 </r>
       <r>   16.0370    0.0000 </r>
       <r>   16.0501    0.0000 </r>
       <r>   16.6865    0.0000 </r>
       <r>   16.7486    0.0000 </r>
       <r>   18.5857    0.0000 </r>
       <r>   18.6834    0.0000 </r>
       <r>   19.4278    0.0000 </r>
       <r>   19.5485    0.0000 </r>
       <r>   20.4798    0.0000 </r>
       <r>   20.5000    0.0000 </r>
       <r>   21.3430    0.0000 </r>
       <r>   21.3982    0.0000 </r>
       <r>   22.9055    0.0000 </r>
       <r>   22.9570    0.0000 </r>
       <r>   23.2590    0.0000 </r>
       <r>   23.3732    0.0000 </r>
       <r>   23.9840    0.0000 </r>
       <r>   24.0225    0.0000 </r>
       <r>   24.4066    0.0000 </r>
       <r>   24.4259    0.0000 </r>
       <r>   25.9944    0.0000 </r>
       <r>   26.0545    0.0000 </r>
       <r>   26.4190    0.0000 </r>
       <r>   26.4544    0.0000 </r>
       <r>   27.7185    0.0000 </r>
       <r>   27.7903    0.0000 </r>
       <r>   28.1848    0.0000 </r>
       <r>   28.2110    0.0000 </r>
       <r>   29.1823    0.0000 </r>
       <r>   29.2090    0.0000 </r>
       <r>   30.2101    0.0000 </r>
       <r>   30.2510    0.0000 </r>
       <r>   30.6915    0.0000 </r>
       <r>   30.8348    0.0000 </r>
      </set>
      <set comment="kpoint 21">
       <r>   -8.3216    1.0000 </r>
       <r>   -8.2995    1.0000 </r>
       <r>   -3.1899    1.0000 </r>
       <r>   -3.1322    1.0000 </r>
       <r>   -0.4994    1.0000 </r>
       <r>   -0.4881    1.0000 </r>
       <r>    0.5957    1.0000 </r>
       <r>    0.6227    1.0000 </r>
       <r>    7.0270    0.0000 </r>
       <r>    7.0779    0.0000 </r>
       <r>    7.6756    0.0000 </r>
       <r>    7.7748    0.0000 </r>
       <r>    9.2968    0.0000 </r>
       <r>    9.3988    0.0000 </r>
       <r>   10.8217    0.0000 </r>
       <r>   10.9642    0.0000 </r>
       <r>   11.6569    0.0000 </r>
       <r>   11.8370    0.0000 </r>
       <r>   14.5994    0.0000 </r>
       <r>   14.6064    0.0000 </r>
       <r>   15.6274    0.0000 </r>
       <r>   15.6472    0.0000 </r>
       <r>   16.0452    0.0000 </r>
       <r>   16.1137    0.0000 </r>
       <r>   18.7014    0.0000 </r>
       <r>   18.7625    0.0000 </r>
       <r>   19.0513    0.0000 </r>
       <r>   19.1388    0.0000 </r>
       <r>   19.7081    0.0000 </r>
       <r>   19.7494    0.0000 </r>
       <r>   20.6448    0.0000 </r>
       <r>   20.6975    0.0000 </r>
       <r>   21.0497    0.0000 </r>
       <r>   21.2097    0.0000 </r>
       <r>   22.7762    0.0000 </r>
       <r>   22.9207    0.0000 </r>
       <r>   23.4317    0.0000 </r>
       <r>   23.4519    0.0000 </r>
       <r>   23.7283    0.0000 </r>
       <r>   23.7847    0.0000 </r>
       <r>   24.1257    0.0000 </r>
       <r>   24.1686    0.0000 </r>
       <r>   25.5205    0.0000 </r>
       <r>   25.5437    0.0000 </r>
       <r>   25.7063    0.0000 </r>
       <r>   25.7574    0.0000 </r>
       <r>   26.4640    0.0000 </r>
       <r>   26.5012    0.0000 </r>
       <r>   27.8357    0.0000 </r>
       <r>   27.8971    0.0000 </r>
       <r>   28.8803    0.0000 </r>
       <r>   28.9179    0.0000 </r>
       <r>   29.5553    0.0000 </r>
       <r>   29.6798    0.0000 </r>
       <r>   29.8384    0.0000 </r>
       <r>   30.0081    0.0000 </r>
      </set>
      <set comment="kpoint 22">
       <r>   -8.1564    1.0000 </r>
       <r>   -8.1337    1.0000 </r>
       <r>   -3.3193    1.0000 </r>
       <r>   -3.2657    1.0000 </r>
       <r>   -0.2578    1.0000 </r>
       <r>   -0.1609    1.0000 </r>
       <r>   -0.1532    1.0000 </r>
       <r>   -0.0400    1.0000 </r>
       <r>    6.5887    0.0000 </r>
       <r>    6.6668    0.0000 </r>
       <r>    7.0630    0.0000 </r>
       <r>    7.1519    0.0000 </r>
       <r>   10.1556    0.0000 </r>
       <r>   10.3022    0.0000 </r>
       <r>   10.7264    0.0000 </r>
       <r>   10.7669    0.0000 </r>
       <r>   13.6381    0.0000 </r>
       <r>   13.7836    0.0000 </r>
       <r>   15.4209    0.0000 </r>
       <r>   15.5149    0.0000 </r>
       <r>   15.5806    0.0000 </r>
       <r>   15.5869    0.0000 </r>
       <r>   15.9512    0.0000 </r>
       <r>   16.0299    0.0000 </r>
       <r>   18.7107    0.0000 </r>
       <r>   18.7713    0.0000 </r>
       <r>   19.5600    0.0000 </r>
       <r>   19.6982    0.0000 </r>
       <r>   19.7122    0.0000 </r>
       <r>   19.8086    0.0000 </r>
       <r>   19.9045    0.0000 </r>
       <r>   19.9355    0.0000 </r>
       <r>   20.1155    0.0000 </r>
       <r>   20.2335    0.0000 </r>
       <r>   20.9554    0.0000 </r>
       <r>   20.9967    0.0000 </r>
       <r>   23.4644    0.0000 </r>
       <r>   23.5174    0.0000 </r>
       <r>   23.8748    0.0000 </r>
       <r>   23.9712    0.0000 </r>
       <r>   24.6671    0.0000 </r>
       <r>   24.6793    0.0000 </r>
       <r>   24.7235    0.0000 </r>
       <r>   24.7416    0.0000 </r>
       <r>   25.3395    0.0000 </r>
       <r>   25.5098    0.0000 </r>
       <r>   25.5416    0.0000 </r>
       <r>   25.5636    0.0000 </r>
       <r>   27.7485    0.0000 </r>
       <r>   27.8122    0.0000 </r>
       <r>   29.1738    0.0000 </r>
       <r>   29.1985    0.0000 </r>
       <r>   29.7432    0.0000 </r>
       <r>   29.7841    0.0000 </r>
       <r>   30.6297    0.0000 </r>
       <r>   30.7655    0.0000 </r>
      </set>
      <set comment="kpoint 23">
       <r>  -10.1545    1.0000 </r>
       <r>  -10.1545    1.0000 </r>
       <r>    2.5743    1.0000 </r>
       <r>    2.5744    1.0000 </r>
       <r>    2.9806    0.1077 </r>
       <r>    2.9808    0.0909 </r>
       <r>    2.9953   -0.0289 </r>
       <r>    2.9962   -0.0313 </r>
       <r>    3.4066   -0.0000 </r>
       <r>    3.4068   -0.0000 </r>
       <r>    7.2634    0.0000 </r>
       <r>    7.2635    0.0000 </r>
       <r>    7.7054    0.0000 </r>
       <r>    7.7056    0.0000 </r>
       <r>    7.7079    0.0000 </r>
       <r>    7.7083    0.0000 </r>
       <r>   11.3272    0.0000 </r>
       <r>   11.3276    0.0000 </r>
       <r>   13.2577    0.0000 </r>
       <r>   13.2637    0.0000 </r>
       <r>   13.2980    0.0000 </r>
       <r>   13.3044    0.0000 </r>
       <r>   14.1735    0.0000 </r>
       <r>   14.1811    0.0000 </r>
       <r>   14.1844    0.0000 </r>
       <r>   14.1920    0.0000 </r>
       <r>   14.3265    0.0000 </r>
       <r>   14.3278    0.0000 </r>
       <r>   16.5301    0.0000 </r>
       <r>   16.5781    0.0000 </r>
       <r>   25.7814    0.0000 </r>
       <r>   25.8225    0.0000 </r>
       <r>   25.9344    0.0000 </r>
       <r>   25.9766    0.0000 </r>
       <r>   26.3253    0.0000 </r>
       <r>   26.4799    0.0000 </r>
       <r>   26.5644    0.0000 </r>
       <r>   26.6031    0.0000 </r>
       <r>   26.8146    0.0000 </r>
       <r>   26.8312    0.0000 </r>
       <r>   27.1523    0.0000 </r>
       <r>   27.1976    0.0000 </r>
       <r>   29.4981    0.0000 </r>
       <r>   29.8227    0.0000 </r>
       <r>   31.4470    0.0000 </r>
       <r>   32.0750    0.0000 </r>
       <r>   32.1881    0.0000 </r>
       <r>   32.5428    0.0000 </r>
       <r>   34.4265    0.0000 </r>
       <r>   35.1850    0.0000 </r>
       <r>   36.4180    0.0000 </r>
       <r>   37.4191    0.0000 </r>
       <r>   37.7711    0.0000 </r>
       <r>   38.0835    0.0000 </r>
       <r>   39.7847    0.0000 </r>
       <r>   39.8400    0.0000 </r>
      </set>
[...]
       <r>    28.6723     0.0000     0.0000 </r>
       <r>    28.8681     0.0000     0.0000 </r>
       <r>    29.0638     0.0000     0.0000 </r>
       <r>    29.2595     0.0000     0.0000 </r>
       <r>    29.4553     0.0000     0.0000 </r>
       <r>    29.6510     0.0000     0.0000 </r>
       <r>    29.8467     0.0000     0.0000 </r>
       <r>    30.0425     0.0000     0.0000 </r>
       <r>    30.2382     0.0000     0.0000 </r>
       <r>    30.4340     0.0000     0.0000 </r>
       <r>    30.6297     0.0000     0.0000 </r>
       <r>    30.8254     0.0000     0.0000 </r>
       <r>    31.0212     0.0000     0.0000 </r>
       <r>    31.2169     0.0000     0.0000 </r>
       <r>    31.4126     0.0000     0.0000 </r>
       <r>    31.6084     0.0000     0.0000 </r>
       <r>    31.8041     0.0000     0.0000 </r>
       <r>    31.9999     0.0000     0.0000 </r>
       <r>    32.1956     0.0000     0.0000 </r>
       <r>    32.3913     0.0000     0.0000 </r>
       <r>    32.5871     0.0000     0.0000 </r>
       <r>    32.7828     0.0000     0.0000 </r>
       <r>    32.9785     0.0000     0.0000 </r>
       <r>    33.1743     0.0000     0.0000 </r>
       <r>    33.3700     0.0000     0.0000 </r>
       <r>    33.5657     0.0000     0.0000 </r>
       <r>    33.7615     0.0000     0.0000 </r>
       <r>    33.9572     0.0000     0.0000 </r>
       <r>    34.1530     0.0000     0.0000 </r>
       <r>    34.3487     0.0000     0.0000 </r>
       <r>    34.5444     0.0000     0.0000 </r>
       <r>    34.7402     0.0000     0.0000 </r>
       <r>    34.9359     0.0000     0.0000 </r>
       <r>    35.1316     0.0000     0.0000 </r>
       <r>    35.3274     0.0000     0.0000 </r>
       <r>    35.5231     0.0000     0.0000 </r>
       <r>    35.7189     0.0000     0.0000 </r>
       <r>    35.9146     0.0000     0.0000 </r>
       <r>    36.1103     0.0000     0.0000 </r>
       <r>    36.3061     0.0000     0.0000 </r>
       <r>    36.5018     0.0000     0.0000 </r>
       <r>    36.6975     0.0000     0.0000 </r>
       <r>    36.8933     0.0000     0.0000 </r>
       <r>    37.0890     0.0000     0.0000 </r>
       <r>    37.2847     0.0000     0.0000 </r>
       <r>    37.4805     0.0000     0.0000 </r>
       <r>    37.6762     0.0000     0.0000 </r>
       <r>    37.8720     0.0000     0.0000 </r>
       <r>    38.0677     0.0000     0.0000 </r>
       <r>    38.2634     0.0000     0.0000 </r>
       <r>    38.4592     0.0000     0.0000 </r>
       <r>    38.6549     0.0000     0.0000 </r>
       <r>    38.8506     0.0000     0.0000 </r>
       <r>    39.0464     0.0000     0.0000 </r>
       <r>    39.2421     0.0000     0.0000 </r>
       <r>    39.4379     0.0000     0.0000 </r>
       <r>    39.6336     0.0000     0.0000 </r>
       <r>    39.8293     0.0000     0.0000 </r>
       <r>    40.0251     0.0000     0.0000 </r>
       <r>    40.2208     0.0000     0.0000 </r>
       <r>    40.4165     0.0000     0.0000 </r>
       <r>    40.6123     0.0000     0.0000 </r>
       <r>    40.8080     0.0000     0.0000 </r>
       <r>    41.0037     0.0000     0.0000 </r>
       <r>    41.1995     0.0000     0.0000 </r>
       <r>    41.3952     0.0000     0.0000 </r>
       <r>    41.5910     0.0000     0.0000 </r>
       <r>    41.7867     0.0000     0.0000 </r>
       <r>    41.9824     0.0000     0.0000 </r>
       <r>    42.1782     0.0000     0.0000 </r>
       <r>    42.3739     0.0000     0.0000 </r>
       <r>    42.5696     0.0000     0.0000 </r>
       <r>    42.7654     0.0000     0.0000 </r>
       <r>    42.9611     0.0000     0.0000 </r>
       <r>    43.1569     0.0000     0.0000 </r>
       <r>    43.3526     0.0000     0.0000 </r>
       <r>    43.5483     0.0000     0.0000 </r>
       <r>    43.7441     0.0000     0.0000 </r>
       <r>    43.9398     0.0000     0.0000 </r>
       <r>    44.1355     0.0000     0.0000 </r>
       <r>    44.3313     0.0000     0.0000 </r>
       <r>    44.5270     0.0000     0.0000 </r>
       <r>    44.7227     0.0000     0.0000 </r>
       <r>    44.9185     0.0000     0.0000 </r>
       <r>    45.1142     0.0000     0.0000 </r>
       <r>    45.3100     0.0000     0.0000 </r>
       <r>    45.5057     0.0000     0.0000 </r>
       <r>    45.7014     0.0000     0.0000 </r>
       <r>    45.8972     0.0000     0.0000 </r>
      </set>
      <set comment="spin 4">
       <r>   -12.8239     0.0000     0.0000 </r>
       <r>   -12.6282     0.0000     0.0000 </r>
       <r>   -12.4324     0.0000     0.0000 </r>
       <r>   -12.2367     0.0000     0.0000 </r>
       <r>   -12.0409     0.0000     0.0000 </r>
       <r>   -11.8452     0.0000     0.0000 </r>
       <r>   -11.6495     0.0000     0.0000 </r>
       <r>   -11.4537     0.0000     0.0000 </r>
       <r>   -11.2580     0.0000     0.0000 </r>
       <r>   -11.0623     0.0000     0.0000 </r>
       <r>   -10.8665     0.0000     0.0000 </r>
       <r>   -10.6708     0.0000     0.0000 </r>
       <r>   -10.4750     0.0000     0.0000 </r>
       <r>   -10.2793     0.0000     0.0000 </r>
       <r>   -10.0836     0.0000     0.0000 </r>
       <r>    -9.8878     0.0000     0.0000 </r>
       <r>    -9.6921     0.0000     0.0000 </r>
       <r>    -9.4964     0.0000     0.0000 </r>
       <r>    -9.3006     0.0000     0.0000 </r>
       <r>    -9.1049     0.0000     0.0000 </r>
       <r>    -8.9092     0.0000     0.0000 </r>
       <r>    -8.7134     0.0000     0.0000 </r>
       <r>    -8.5177     0.0000     0.0000 </r>
       <r>    -8.3219     0.0000     0.0000 </r>
       <r>    -8.1262     0.0000     0.0000 </r>
       <r>    -7.9305     0.0000     0.0000 </r>
       <r>    -7.7347     0.0000     0.0000 </r>
       <r>    -7.5390     0.0000     0.0000 </r>
       <r>    -7.3433     0.0000     0.0000 </r>
       <r>    -7.1475     0.0000     0.0000 </r>
       <r>    -6.9518     0.0000     0.0000 </r>
       <r>    -6.7560     0.0000     0.0000 </r>
       <r>    -6.5603     0.0000     0.0000 </r>
       <r>    -6.3646     0.0000     0.0000 </r>
       <r>    -6.1688     0.0000     0.0000 </r>
       <r>    -5.9731     0.0000     0.0000 </r>
       <r>    -5.7774     0.0000     0.0000 </r>
       <r>    -5.5816     0.0000     0.0000 </r>
       <r>    -5.3859     0.0000     0.0000 </r>
       <r>    -5.1902     0.0000     0.0000 </r>
       <r>    -4.9944     0.0000     0.0000 </r>
       <r>    -4.7987     0.0000     0.0000 </r>
       <r>    -4.6029     0.0000     0.0000 </r>
       <r>    -4.4072     0.0000     0.0000 </r>
       <r>    -4.2115     0.0000     0.0000 </r>
       <r>    -4.0157     0.0000     0.0000 </r>
       <r>    -3.8200     0.0000     0.0000 </r>
       <r>    -3.6243     0.0000     0.0000 </r>
       <r>    -3.4285     0.0000     0.0000 </r>
       <r>    -3.2328     0.0000     0.0000 </r>
       <r>    -3.0370     0.0000     0.0000 </r>
       <r>    -2.8413     0.0000     0.0000 </r>
       <r>    -2.6456     0.0000     0.0000 </r>
       <r>    -2.4498     0.0000     0.0000 </r>
       <r>    -2.2541     0.0000     0.0000 </r>
       <r>    -2.0584     0.0000     0.0000 </r>
       <r>    -1.8626     0.0000     0.0000 </r>
       <r>    -1.6669     0.0000     0.0000 </r>
       <r>    -1.4712     0.0000     0.0000 </r>
       <r>    -1.2754     0.0000     0.0000 </r>
       <r>    -1.0797     0.0000     0.0000 </r>
       <r>    -0.8839     0.0000     0.0000 </r>
       <r>    -0.6882     0.0000     0.0000 </r>
       <r>    -0.4925     0.0000     0.0000 </r>
       <r>    -0.2967     0.0000     0.0000 </r>
       <r>    -0.1010     0.0000     0.0000 </r>
       <r>     0.0947     0.0000     0.0000 </r>
       <r>     0.2905     0.0000     0.0000 </r>
       <r>     0.4862     0.0000     0.0000 </r>
       <r>     0.6820     0.0000     0.0000 </r>
       <r>     0.8777     0.0000     0.0000 </r>
       <r>     1.0734     0.0000     0.0000 </r>
       <r>     1.2692     0.0000     0.0000 </r>
       <r>     1.4649     0.0000     0.0000 </r>
       <r>     1.6606     0.0000     0.0000 </r>
       <r>     1.8564     0.0000     0.0000 </r>
       <r>     2.0521     0.0000     0.0000 </r>
       <r>     2.2478     0.0000     0.0000 </r>
       <r>     2.4436     0.0000     0.0000 </r>
       <r>     2.6393     0.0000     0.0000 </r>
       <r>     2.8351     0.0000     0.0000 </r>
       <r>     3.0308     0.0000     0.0000 </r>
       <r>     3.2265     0.0000     0.0000 </r>
       <r>     3.4223     0.0000     0.0000 </r>
       <r>     3.6180     0.0000     0.0000 </r>
       <r>     3.8137     0.0000     0.0000 </r>
       <r>     4.0095     0.0000     0.0000 </r>
       <r>     4.2052     0.0000     0.0000 </r>
       <r>     4.4010     0.0000     0.0000 </r>
       <r>     4.5967     0.0000     0.0000 </r>
       <r>     4.7924     0.0000     0.0000 </r>
       <r>     4.9882     0.0000     0.0000 </r>
       <r>     5.1839     0.0000     0.0000 </r>
       <r>     5.3796     0.0000     0.0000 </r>
       <r>     5.5754     0.0000     0.0000 </r>
       <r>     5.7711     0.0000     0.0000 </r>
       <r>     5.9668     0.0000     0.0000 </r>
       <r>     6.1626     0.0000     0.0000 </r>
       <r>     6.3583     0.0000     0.0000 </r>
       <r>     6.5541     0.0000     0.0000 </r>
       <r>     6.7498     0.0000     0.0000 </r>
       <r>     6.9455     0.0000     0.0000 </r>
       <r>     7.1413     0.0000     0.0000 </r>
       <r>     7.3370     0.0000     0.0000 </r>
       <r>     7.5327     0.0000     0.0000 </r>
       <r>     7.7285     0.0000     0.0000 </r>
       <r>     7.9242     0.0000     0.0000 </r>
       <r>     8.1200     0.0000     0.0000 </r>
       <r>     8.3157     0.0000     0.0000 </r>
       <r>     8.5114     0.0000     0.0000 </r>
       <r>     8.7072     0.0000     0.0000 </r>
       <r>     8.9029     0.0000     0.0000 </r>
       <r>     9.0986     0.0000     0.0000 </r>
       <r>     9.2944     0.0000     0.0000 </r>
       <r>     9.4901     0.0000     0.0000 </r>
       <r>     9.6858     0.0000     0.0000 </r>
       <r>     9.8816     0.0000     0.0000 </r>
       <r>    10.0773     0.0000     0.0000 </r>
       <r>    10.2731     0.0000     0.0000 </r>
       <r>    10.4688     0.0000     0.0000 </r>
       <r>    10.6645     0.0000     0.0000 </r>
       <r>    10.8603     0.0000     0.0000 </r>
       <r>    11.0560     0.0000     0.0000 </r>
       <r>    11.2517     0.0000     0.0000 </r>
       <r>    11.4475     0.0000     0.0000 </r>
       <r>    11.6432     0.0000     0.0000 </r>
       <r>    11.8390     0.0000     0.0000 </r>
       <r>    12.0347     0.0000     0.0000 </r>
       <r>    12.2304     0.0000     0.0000 </r>
       <r>    12.4262     0.0000     0.0000 </r>
       <r>    12.6219     0.0000     0.0000 </r>
       <r>    12.8176     0.0000     0.0000 </r>
       <r>    13.0134     0.0000     0.0000 </r>
       <r>    13.2091     0.0000     0.0000 </r>
       <r>    13.4048     0.0000     0.0000 </r>
       <r>    13.6006     0.0000     0.0000 </r>
       <r>    13.7963     0.0000     0.0000 </r>
       <r>    13.9921     0.0000     0.0000 </r>
       <r>    14.1878     0.0000     0.0000 </r>
       <r>    14.3835     0.0000     0.0000 </r>
       <r>    14.5793     0.0000     0.0000 </r>
       <r>    14.7750     0.0000     0.0000 </r>
       <r>    14.9707     0.0000     0.0000 </r>
       <r>    15.1665     0.0000     0.0000 </r>
       <r>    15.3622     0.0000     0.0000 </r>
       <r>    15.5580     0.0000     0.0000 </r>
       <r>    15.7537     0.0000     0.0000 </r>
       <r>    15.9494     0.0000     0.0000 </r>
       <r>    16.1452     0.0000     0.0000 </r>
       <r>    16.3409     0.0000     0.0000 </r>
       <r>    16.5366     0.0000     0.0000 </r>
       <r>    16.7324     0.0000     0.0000 </r>
       <r>    16.9281     0.0000     0.0000 </r>
       <r>    17.1238     0.0000     0.0000 </r>
       <r>    17.3196     0.0000     0.0000 </r>
       <r>    17.5153     0.0000     0.0000 </r>
       <r>    17.7111     0.0000     0.0000 </r>
       <r>    17.9068     0.0000     0.0000 </r>
       <r>    18.1025     0.0000     0.0000 </r>
       <r>    18.2983     0.0000     0.0000 </r>
       <r>    18.4940     0.0000     0.0000 </r>
       <r>    18.6897     0.0000     0.0000 </r>
       <r>    18.8855     0.0000     0.0000 </r>
       <r>    19.0812     0.0000     0.0000 </r>
       <r>    19.2770     0.0000     0.0000 </r>
       <r>    19.4727     0.0000     0.0000 </r>
       <r>    19.6684     0.0000     0.0000 </r>
       <r>    19.8642     0.0000     0.0000 </r>
       <r>    20.0599     0.0000     0.0000 </r>
       <r>    20.2556     0.0000     0.0000 </r>
       <r>    20.4514     0.0000     0.0000 </r>
       <r>    20.6471     0.0000     0.0000 </r>
       <r>    20.8428     0.0000     0.0000 </r>
       <r>    21.0386     0.0000     0.0000 </r>
       <r>    21.2343     0.0000     0.0000 </r>
       <r>    21.4301     0.0000     0.0000 </r>
       <r>    21.6258     0.0000     0.0000 </r>
       <r>    21.8215     0.0000     0.0000 </r>
       <r>    22.0173     0.0000     0.0000 </r>
       <r>    22.2130     0.0000     0.0000 </r>
       <r>    22.4087     0.0000     0.0000 </r>
       <r>    22.6045     0.0000     0.0000 </r>
       <r>    22.8002     0.0000     0.0000 </r>
       <r>    22.9960     0.0000     0.0000 </r>
       <r>    23.1917     0.0000     0.0000 </r>
       <r>    23.3874     0.0000     0.0000 </r>
       <r>    23.5832     0.0000     0.0000 </r>
       <r>    23.7789     0.0000     0.0000 </r>
       <r>    23.9746     0.0000     0.0000 </r>
       <r>    24.1704     0.0000     0.0000 </r>
       <r>    24.3661     0.0000     0.0000 </r>
       <r>    24.5619     0.0000     0.0000 </r>
       <r>    24.7576     0.0000     0.0000 </r>
       <r>    24.9533     0.0000     0.0000 </r>
       <r>    25.1491     0.0000     0.0000 </r>
       <r>    25.3448     0.0000     0.0000 </r>
       <r>    25.5405     0.0000     0.0000 </r>
       <r>    25.7363     0.0000     0.0000 </r>
       <r>    25.9320     0.0000     0.0000 </r>
       <r>    26.1277     0.0000     0.0000 </r>
       <r>    26.3235     0.0000     0.0000 </r>
       <r>    26.5192     0.0000     0.0000 </r>
       <r>    26.7150     0.0000     0.0000 </r>
       <r>    26.9107     0.0000     0.0000 </r>
       <r>    27.1064     0.0000     0.0000 </r>
       <r>    27.3022     0.0000     0.0000 </r>
       <r>    27.4979     0.0000     0.0000 </r>
       <r>    27.6936     0.0000     0.0000 </r>
       <r>    27.8894     0.0000     0.0000 </r>
       <r>    28.0851     0.0000     0.0000 </r>
       <r>    28.2809     0.0000     0.0000 </r>
       <r>    28.4766     0.0000     0.0000 </r>
       <r>    28.6723     0.0000     0.0000 </r>
       <r>    28.8681     0.0000     0.0000 </r>
       <r>    29.0638     0.0000     0.0000 </r>
       <r>    29.2595     0.0000     0.0000 </r>
       <r>    29.4553     0.0000     0.0000 </r>
       <r>    29.6510     0.0000     0.0000 </r>
       <r>    29.8467     0.0000     0.0000 </r>
       <r>    30.0425     0.0000     0.0000 </r>
       <r>    30.2382     0.0000     0.0000 </r>
       <r>    30.4340     0.0000     0.0000 </r>
       <r>    30.6297     0.0000     0.0000 </r>
       <r>    30.8254     0.0000     0.0000 </r>
       <r>    31.0212     0.0000     0.0000 </r>
       <r>    31.2169     0.0000     0.0000 </r>
       <r>    31.4126     0.0000     0.0000 </r>
       <r>    31.6084     0.0000     0.0000 </r>
       <r>    31.8041     0.0000     0.0000 </r>
       <r>    31.9999     0.0000     0.0000 </r>
       <r>    32.1956     0.0000     0.0000 </r>
       <r>    32.3913     0.0000     0.0000 </r>
       <r>    32.5871     0.0000     0.0000 </r>
       <r>    32.7828     0.0000     0.0000 </r>
       <r>    32.9785     0.0000     0.0000 </r>
       <r>    33.1743     0.0000     0.0000 </r>
       <r>    33.3700     0.0000     0.0000 </r>
       <r>    33.5657     0.0000     0.0000 </r>
       <r>    33.7615     0.0000     0.0000 </r>
       <r>    33.9572     0.0000     0.0000 </r>
       <r>    34.1530     0.0000     0.0000 </r>
       <r>    34.3487     0.0000     0.0000 </r>
       <r>    34.5444     0.0000     0.0000 </r>
       <r>    34.7402     0.0000     0.0000 </r>
       <r>    34.9359     0.0000     0.0000 </r>
       <r>    35.1316     0.0000     0.0000 </r>
       <r>    35.3274     0.0000     0.0000 </r>
       <r>    35.5231     0.0000     0.0000 </r>
       <r>    35.7189     0.0000     0.0000 </r>
       <r>    35.9146     0.0000     0.0000 </r>
       <r>    36.1103     0.0000     0.0000 </r>
       <r>    36.3061     0.0000     0.0000 </r>
       <r>    36.5018     0.0000     0.0000 </r>
       <r>    36.6975     0.0000     0.0000 </r>
       <r>    36.8933     0.0000     0.0000 </r>
       <r>    37.0890     0.0000     0.0000 </r>
       <r>    37.2847     0.0000     0.0000 </r>
       <r>    37.4805     0.0000     0.0000 </r>
       <r>    37.6762     0.0000     0.0000 </r>
       <r>    37.8720     0.0000     0.0000 </r>
       <r>    38.0677     0.0000     0.0000 </r>
       <r>    38.2634     0.0000     0.0000 </r>
       <r>    38.4592     0.0000     0.0000 </r>
       <r>    38.6549     0.0000     0.0000 </r>
       <r>    38.8506     0.0000     0.0000 </r>
       <r>    39.0464     0.0000     0.0000 </r>
       <r>    39.2421     0.0000     0.0000 </r>
       <r>    39.4379     0.0000     0.0000 </r>
       <r>    39.6336     0.0000     0.0000 </r>
       <r>    39.8293     0.0000     0.0000 </r>
       <r>    40.0251     0.0000     0.0000 </r>
       <r>    40.2208     0.0000     0.0000 </r>
       <r>    40.4165     0.0000     0.0000 </r>
       <r>    40.6123     0.0000     0.0000 </r>
       <r>    40.8080     0.0000     0.0000 </r>
       <r>    41.0037     0.0000     0.0000 </r>
       <r>    41.1995     0.0000     0.0000 </r>
       <r>    41.3952     0.0000     0.0000 </r>
       <r>    41.5910     0.0000     0.0000 </r>
       <r>    41.7867     0.0000     0.0000 </r>
       <r>    41.9824     0.0000     0.0000 </r>
       <r>    42.1782     0.0000     0.0000 </r>
       <r>    42.3739     0.0000     0.0000 </r>
       <r>    42.5696     0.0000     0.0000 </r>
       <r>    42.7654     0.0000     0.0000 </r>
       <r>    42.9611     0.0000     0.0000 </r>
       <r>    43.1569     0.0000     0.0000 </r>
       <r>    43.3526     0.0000     0.0000 </r>
       <r>    43.5483     0.0000     0.0000 </r>
       <r>    43.7441     0.0000     0.0000 </r>
       <r>    43.9398     0.0000     0.0000 </r>
       <r>    44.1355     0.0000     0.0000 </r>
       <r>    44.3313     0.0000     0.0000 </r>
       <r>    44.5270     0.0000     0.0000 </r>
       <r>    44.7227     0.0000     0.0000 </r>
       <r>    44.9185     0.0000     0.0000 </r>
       <r>    45.1142     0.0000     0.0000 </r>
       <r>    45.3100     0.0000     0.0000 </r>
       <r>    45.5057     0.0000     0.0000 </r>
       <r>    45.7014     0.0000     0.0000 </r>
       <r>    45.8972     0.0000     0.0000 </r>
      </set>
     </set>
    </array>
   </total>
  </dos>
 </calculation>
 <structure name="finalpos" >
  <crystal>
   <varray name="basis" >
    <v>       0.00000000       3.02920000       3.02920000 </v>
    <v>       3.02920000       0.00000000       3.02920000 </v>
    <v>       3.02920000       3.02920000       0.00000000 </v>
   </varray>
   <i name="volume">     55.59219731 </i>
   <varray name="rec_basis" >
    <v>      -0.16506008       0.16506008       0.16506008 </v>
    <v>       0.16506008      -0.16506008       0.16506008 </v>
    <v>       0.16506008       0.16506008      -0.16506008 </v>
   </varray>
  </crystal>
  <varray name="positions" >
   <v>       0.00000000       0.00000000       0.00000000 </v>
   <v>       0.25000000       0.25000000       0.25000000 </v>
  </varray>
 </structure>
</modeling>
