unknown system                          
   1.00000000000000     
     0.000000    2.984000    2.984000
     2.984000    0.000000    2.984000
     2.984000    2.984000    0.000000
   Eu   S 
     1     1
Direct
  0.000000  0.000000  0.000000
  0.500000  0.500000  0.500000
 
   36   36   36
 0.20128694888E+09 0.52616608634E+05 0.51331316058E+04 0.20567374285E+04 0.46314047029E+03
 0.88723530182E+02 0.16677857718E+02 0.31902023996E+01 0.62522465068E+00 0.12521339184E+00
 0.25647528632E-01 0.52965298990E-02 0.11256418002E-02 0.23805580066E-03 0.50257467561E-04
 -.27574215325E-05 -.18236452085E-05 -.49336263350E-05 0.16046866222E-04 -.49336262549E-05
 -.18236452063E-05 -.27574214947E-05 0.50257466991E-04 0.23805579631E-03 0.11256418002E-02
 0.52965298958E-02 0.25647528632E-01 0.12521339184E+00 0.62522465068E+00 0.31902023996E+01
 0.16677857718E+02 0.88723530182E+02 0.46314047029E+03 0.20567374285E+04 0.51331316058E+04
 0.52616608634E+05 0.52616608634E+05 0.64877523596E+04 0.31258574864E+04 0.86305090649E+03
 0.17801927619E+03 0.34306317032E+02 0.66138748103E+01 0.12987491223E+01 0.26011433031E+00
 0.53096087742E-01 0.10975545711E-01 0.23594297540E-02 0.46940419557E-03 0.12257039610E-03
 0.12433139343E-04 0.25777819896E-04 0.10337527020E-05 0.83056268148E-05 -.14456541843E-04
 0.10972725736E-05 0.16043496065E-04 0.27587293557E-04 0.12407163190E-03 0.47046421602E-03
 0.23584871971E-02 0.10978764754E-01 0.53093321189E-01 0.26011703952E+00 0.12987391679E+01
 0.66138727061E+01 0.34306304267E+02 0.17801925452E+03 0.86305092514E+03 0.31258574585E+04
 0.64877523948E+04 0.52616608660E+05 0.51331316058E+04 0.31258574864E+04 0.10697481025E+04
 0.25781603244E+03 0.54467556728E+02 0.11100506366E+02 0.22569203730E+01 0.46331752783E+00
 0.96315418369E-01 0.20269600444E-01 0.43145305777E-02 0.90846490243E-03 0.21437223228E-03
 0.31657414491E-04 0.21550826001E-04 -.21184035623E-04 0.58382830231E-05 -.16720339509E-04
 0.24473554801E-04 -.87035638440E-05 0.14487556035E-04 0.17754756363E-04 0.20936741871E-03
 0.91043966365E-03 0.43094933289E-02 0.20274749825E-01 0.96313195466E-01 0.46331964272E+00
 0.22569068593E+01 0.11100508682E+02 0.54467548275E+02 0.25781603049E+03 0.10697481139E+04
 0.31258574822E+04 0.51331316012E+04 0.64877523948E+04 0.20567374285E+04 0.86305090649E+03
 0.25781603244E+03 0.63892157607E+02 0.14532806248E+02 0.31902308805E+01 0.69194774200E+00
 0.14989465742E+00 0.32547678376E-01 0.70545927194E-02 0.15697187727E-02 0.33678659177E-03
 0.78943857031E-04 0.14820979754E-04 0.26094542842E-05 0.13480154678E-04 0.40912405911E-05
 0.92424911238E-05 -.13540976738E-04 0.31560979338E-05 0.22153476092E-04 0.93066987483E-04
 0.34229925897E-03 0.15703204379E-02 0.70566886999E-02 0.32545947349E-01 0.14989114060E+00
 0.69195077707E+00 0.31902281498E+01 0.14532798671E+02 0.63892152621E+02 0.25781602697E+03
 0.86305092408E+03 0.20567374378E+04 0.31258574822E+04 0.31258574585E+04 0.46314047029E+03
 0.17801927619E+03 0.54467556728E+02 0.14532806248E+02 0.35900956234E+01 0.85068974596E+00
 0.19674750360E+00 0.44989935581E-01 0.10180866714E-01 0.23567551334E-02 0.49655277237E-03
 0.14133309885E-03 0.73934564611E-05 0.25242748074E-04 -.12644740013E-04 0.39448425185E-05
 -.19282863743E-04 0.62462323338E-05 -.19197827194E-05 0.27634306922E-04 0.17353291282E-06
 0.12744173286E-03 0.48770014928E-03 0.23585694299E-02 0.10177526736E-01 0.44991381714E-01
 0.19674269794E+00 0.85068527558E+00 0.35901056371E+01 0.14532797131E+02 0.54467567393E+02
 0.17801927522E+03 0.46314043920E+03 0.86305092408E+03 0.10697481139E+04 0.86305092514E+03
 0.88723530183E+02 0.34306317032E+02 0.11100506366E+02 0.31902308805E+01 0.85068974582E+00
 0.21585995944E+00 0.53079688180E-01 0.12791666362E-01 0.30690509384E-02 0.70324967147E-03
 0.17857752952E-03 0.33256906690E-04 0.13148106253E-04 -.13989427518E-05 -.27267422866E-05
 0.13968859177E-04 0.61730994690E-06 0.16726357626E-04 -.16322636058E-04 0.11151484355E-04
 0.36348528124E-04 0.19835093377E-03 0.70784507622E-03 0.30728467832E-02 0.12791025971E-01
 0.53079493353E-01 0.21585806360E+00 0.85067275661E+00 0.31902382136E+01 0.11100475504E+02
 0.34306311085E+02 0.88723539690E+02 0.17801927522E+03 0.25781602697E+03 0.25781603049E+03
 0.17801925452E+03 0.16677857717E+02 0.66138748105E+01 0.22569203729E+01 0.69194774210E+00
 0.19674750360E+00 0.53079688348E-01 0.13799580744E-01 0.35123068600E-02 0.84945774099E-03
 0.22383943735E-03 0.41147670884E-04 0.21153995521E-04 -.46384120666E-05 0.10542919302E-04
 -.24197540176E-05 -.45727113342E-05 -.98790107873E-05 -.43902955984E-05 0.55048713040E-05
 0.31992344220E-04 0.31357126078E-04 0.21032356571E-03 0.83650352808E-03 0.35149584971E-02
 0.13793260110E-01 0.53077408732E-01 0.19676320076E+00 0.69192642742E+00 0.22569413773E+01
 0.66138714852E+01 0.16677845853E+02 0.34306311085E+02 0.54467567393E+02 0.63892152620E+02
 0.54467548274E+02 0.34306304267E+02 0.31902023996E+01 0.12987491223E+01 0.46331752765E+00
 0.14989465751E+00 0.44989935383E-01 0.12791666394E-01 0.35123068102E-02 0.91726275128E-03
 0.24657448981E-03 0.59558104113E-04 0.16119278701E-04 0.51089206534E-05 -.13334508948E-05
 0.10831782714E-05 -.90252419346E-05 0.17297075022E-04 -.28928130432E-05 0.22774876248E-04
 -.12878497061E-04 0.10727008755E-04 0.60043775044E-04 0.26959720264E-03 0.92511988078E-03
 0.35166167515E-02 0.12799537732E-01 0.44966278604E-01 0.14991544478E+00 0.46329117417E+00
 0.12987486159E+01 0.31902249874E+01 0.66138714852E+01 0.11100475504E+02 0.14532797131E+02
 0.14532798671E+02 0.11100508682E+02 0.66138727062E+01 0.62522465082E+00 0.26011433058E+00
 0.96315417995E-01 0.32547678540E-01 0.10180866698E-01 0.30690513096E-02 0.84945797641E-03
 0.24657445308E-03 0.55356551749E-04 0.20667736284E-04 0.78886498502E-06 0.41051441107E-05
 -.85962651074E-06 0.53306326563E-05 0.54225980077E-05 -.99315787640E-05 -.25470573076E-05
 -.13729624703E-04 0.88805530618E-05 0.38594852258E-04 0.49165114417E-04 0.22505520792E-03
 0.83867103037E-03 0.30541166513E-02 0.10205409352E-01 0.32515576906E-01 0.96343579219E-01
 0.26011200072E+00 0.62519127634E+00 0.12987486157E+01 0.22569413771E+01 0.31902382140E+01
 0.35901056372E+01 0.31902281501E+01 0.22569068591E+01 0.12987391682E+01 0.12521339292E+00
 0.53096087989E-01 0.20269600622E-01 0.70545930580E-02 0.23567551303E-02 0.70324935044E-03
 0.22383920044E-03 0.59558208523E-04 0.20667224293E-04 0.62862754931E-05 0.19872399800E-06
 0.32599364896E-05 -.34189058137E-05 0.10266195729E-05 -.11192863022E-04 0.17238824198E-04
 -.30936383136E-05 0.25953099054E-04 -.23324209934E-05 -.37120176462E-05 0.69615655682E-04
 0.23998047769E-03 0.73917920537E-03 0.23300136678E-02 0.70952351004E-02 0.20252269647E-01
 0.53077346838E-01 0.12527158739E+00 0.26011200055E+00 0.46329117428E+00 0.69192642723E+00
 0.85067275611E+00 0.85068527628E+00 0.69195077721E+00 0.46331964289E+00 0.26011703982E+00
 0.25647528577E-01 0.10975545874E-01 0.43145305834E-02 0.15697188039E-02 0.49655267060E-03
 0.17857741512E-03 0.41147687294E-04 0.16119374944E-04 0.78896520423E-06 0.19890623191E-06
 0.21808170028E-05 -.18371833313E-05 0.55433044837E-05 0.21129682508E-06 0.14957343875E-04
 -.17297309381E-04 0.69987729613E-05 -.28220621104E-04 0.58264876280E-05 0.42272800217E-04
 0.36699464426E-04 0.13476212517E-03 0.49807066263E-03 0.15372732662E-02 0.42985377271E-02
 0.11017885914E-01 0.25590987249E-01 0.53077346991E-01 0.96343579181E-01 0.14991544449E+00
 0.19676320095E+00 0.21585806352E+00 0.19674269813E+00 0.14989114070E+00 0.96313194951E-01
 0.53093321486E-01 0.52965299576E-02 0.23594296904E-02 0.90846493314E-03 0.33678645286E-03
 0.14133323307E-03 0.33256872296E-04 0.21154028308E-04 0.51088714808E-05 0.41050940706E-05
 0.32600339126E-05 -.18372731748E-05 0.46672841137E-05 -.56561921806E-05 0.29512507750E-05
 -.17156401672E-04 0.21773534981E-04 -.71723708770E-05 0.46904358801E-04 0.35322468000E-04
 0.59387767002E-05 0.50457977475E-04 0.11738534780E-03 0.40590013328E-03 0.95137116610E-03
 0.23322373151E-02 0.53290996272E-02 0.11017885705E-01 0.20252269787E-01 0.32515576513E-01
 0.44966278571E-01 0.53077408828E-01 0.53079493394E-01 0.44991381648E-01 0.32545946977E-01
 0.20274749657E-01 0.10978764808E-01 0.11256423313E-02 0.46940407261E-03 0.21437216916E-03
 0.78943828419E-04 0.73935634429E-05 0.13147911872E-04 -.46380473582E-05 -.13337074717E-05
 -.85983283102E-06 -.34184256375E-05 0.55437662697E-05 -.56562930842E-05 0.11638498110E-04
 -.56099147812E-05 0.27577314503E-04 -.27301128525E-04 0.79639650248E-05 -.94269590701E-04
 -.62969976170E-04 0.14616079908E-03 0.21200294325E-03 -.50138521355E-04 0.68954281365E-04
 0.50191085629E-03 0.10582043687E-02 0.23322375675E-02 0.42985380317E-02 0.70952353978E-02
 0.10205409601E-01 0.12799537562E-01 0.13793260573E-01 0.12791025940E-01 0.10177526571E-01
 0.70566888810E-02 0.43094931309E-02 0.23584871271E-02 0.23805521843E-03 0.12257031310E-03
 0.31657760903E-04 0.14821141324E-04 0.25243147274E-04 -.13987461699E-05 0.10543212390E-04
 0.10832121591E-05 0.53306435630E-05 0.10266879440E-05 0.21110096167E-06 0.29510868866E-05
 -.56102590709E-05 0.33234658366E-05 -.27983711319E-04 -.24648685548E-04 -.14252699145E-03
 -.16801458229E-03 -.15717948027E-03 -.20323367615E-03 0.20671254985E-03 0.98172785035E-04
 0.11575962468E-03 0.41919540420E-03 0.50191090975E-03 0.95137097516E-03 0.15372730709E-02
 0.23300137856E-02 0.30541165979E-02 0.35166167943E-02 0.35149587585E-02 0.30728467379E-02
 0.23585693005E-02 0.15703205224E-02 0.91043952164E-03 0.47046428849E-03 0.50256544855E-04
 0.12433155651E-04 0.21550646466E-04 0.26091500004E-05 -.12644543342E-04 -.27266194725E-05
 -.24199511619E-05 -.90251785444E-05 0.54224407022E-05 -.11192341632E-04 0.14957773073E-04
 -.17156446036E-04 0.27577564203E-04 -.27983701921E-04 -.58570248520E-05 -.14969200907E-03
 -.24951671198E-04 -.22748362853E-03 -.52169851004E-03 0.59371265477E-05 0.61160213477E-03
 -.28118438647E-04 -.19528760641E-03 0.11575963954E-03 0.68954406122E-04 0.40590022378E-03
 0.49807052391E-03 0.73917950076E-03 0.83867106628E-03 0.92511952962E-03 0.83650345980E-03
 0.70784508264E-03 0.48770025366E-03 0.34229911357E-03 0.20936755170E-03 0.12407190425E-03
 -.27583874993E-05 0.25777774035E-04 -.21183930881E-04 0.13480181421E-04 0.39449690506E-05
 0.13968806899E-04 -.45728732313E-05 0.17297109680E-04 -.99313278108E-05 0.17239159941E-04
 -.17296998803E-04 0.21773679153E-04 -.27301193014E-04 -.24648569406E-04 -.14969198590E-03
 0.61072917588E-04 -.11061099684E-03 -.50529884759E-03 -.14045373486E-03 0.11426670672E-03
 0.90012410737E-04 -.55183227619E-03 -.28118421021E-04 0.98172819517E-04 -.50138533651E-04
 0.11738537623E-03 0.13476216743E-03 0.23998098008E-03 0.22505523846E-03 0.26959729124E-03
 0.21032340572E-03 0.19835089098E-03 0.12744180854E-03 0.93067108771E-04 0.17754774786E-04
 0.27587253471E-04 -.18239673400E-05 0.10337232386E-05 0.58383917811E-05 0.40913577971E-05
 -.19282716927E-04 0.61735567717E-06 -.98792557909E-05 -.28926301036E-05 -.25474320696E-05
 -.30934945565E-05 0.69982198360E-05 -.71722940193E-05 0.79641250321E-05 -.14252731260E-03
 -.24951826412E-04 -.11061102904E-03 -.47407617052E-03 -.11820734219E-03 -.49877583925E-03
 0.36256057484E-04 0.26392853451E-03 0.90012677241E-04 0.61160209622E-03 0.20671266313E-03
 0.21200296480E-03 0.50457931960E-04 0.36699351145E-04 0.69615567227E-04 0.49165074786E-04
 0.60043877179E-04 0.31356877458E-04 0.36348341273E-04 0.17378063456E-06 0.22153240995E-04
 0.14487695808E-04 0.16043525552E-04 -.49335539110E-05 0.83054669074E-05 -.16720079317E-04
 0.92424145321E-05 0.62460991713E-05 0.16726221797E-04 -.43902600294E-05 0.22774905795E-04
 -.13729436295E-04 0.25953169518E-04 -.28220500497E-04 0.46904229821E-04 -.94269172378E-04
 -.16801452547E-03 -.22748353430E-03 -.50529890168E-03 -.11820745527E-03 -.69098605567E-03
 -.74859840083E-04 0.10385775616E-02 0.36256177594E-04 0.11426671982E-03 0.59372063017E-05
 -.20323358415E-03 0.14616087869E-03 0.59387947669E-05 0.42272604521E-04 -.37121021204E-05
 0.38594460305E-04 0.10726971760E-04 0.31992242855E-04 0.11151521210E-04 0.27634500731E-04
 0.31558040791E-05 -.87034829997E-05 0.10972653692E-05 0.16045290977E-04 -.14456760438E-04
 0.24472981335E-04 -.13541353413E-04 -.19195738037E-05 -.16322351660E-04 0.55045256896E-05
 -.12878194004E-04 0.88800055535E-05 -.23323727873E-05 0.58265065682E-05 0.35323231474E-04
 -.62970728324E-04 -.15717903106E-03 -.52169858028E-03 -.14045365466E-03 -.49877494129E-03
 -.74859348331E-04 0.12719133883E-02 -.74859348160E-04 -.49877494124E-03 -.14045365465E-03
 -.52169858023E-03 -.15717903113E-03 -.62970728321E-04 0.35323231512E-04 0.58265065812E-05
 -.23323727874E-05 0.88800054646E-05 -.12878193946E-04 0.55045256876E-05 -.16322351621E-04
 -.19195738606E-05 -.13541353400E-04 0.24472981284E-04 -.14456760747E-04 -.49335507658E-05
 0.10972654229E-05 -.87034828171E-05 0.31558042003E-05 0.27634500796E-04 0.11151521142E-04
 0.31992242864E-04 0.10726971851E-04 0.38594460452E-04 -.37121021203E-05 0.42272604659E-04
 0.59387946506E-05 0.14616087869E-03 -.20323358415E-03 0.59372062706E-05 0.11426671988E-03
 0.36256177538E-04 0.10385775613E-02 -.74859840197E-04 -.69098605573E-03 -.11820745521E-03
 -.50529890166E-03 -.22748353429E-03 -.16801452558E-03 -.94269172370E-04 0.46904229835E-04
 -.28220500410E-04 0.25953169518E-04 -.13729436231E-04 0.22774905950E-04 -.43902600263E-05
 0.16726221848E-04 0.62460991358E-05 0.92424145979E-05 -.16720079156E-04 0.83054679578E-05
 -.18239677019E-05 0.16043525603E-04 0.14487695780E-04 0.22153240976E-04 0.17378066975E-06
 0.36348341159E-04 0.31356877465E-04 0.60043877149E-04 0.49165074838E-04 0.69615567227E-04
 0.36699351271E-04 0.50457931894E-04 0.21200296481E-03 0.20671266310E-03 0.61160209627E-03
 0.90012677298E-04 0.26392853455E-03 0.36256057399E-04 -.49877583922E-03 -.11820734221E-03
 -.47407617059E-03 -.11061102900E-03 -.24951826395E-04 -.14252731257E-03 0.79641250407E-05
 -.71722939088E-05 0.69982198527E-05 -.30934945565E-05 -.25474320074E-05 -.28926301120E-05
 -.98792557861E-05 0.61735578540E-06 -.19282717007E-04 0.40913575875E-05 0.58383914492E-05
 0.10337224841E-05 -.27583874838E-05 0.27587253412E-04 0.17754774713E-04 0.93067108707E-04
 0.12744180858E-03 0.19835089085E-03 0.21032340572E-03 0.26959729131E-03 0.22505523842E-03
 0.23998098008E-03 0.13476216751E-03 0.11738537621E-03 -.50138533647E-04 0.98172819448E-04
 -.28118420963E-04 -.55183227617E-03 0.90012410752E-04 0.11426670684E-03 -.14045373486E-03
 -.50529884783E-03 -.11061099685E-03 0.61072917625E-04 -.14969198588E-03 -.24648569323E-04
 -.27301193010E-04 0.21773679061E-04 -.17296998861E-04 0.17239159941E-04 -.99313277796E-05
 0.17297109587E-04 -.45728732228E-05 0.13968806944E-04 0.39449690594E-05 0.13480181432E-04
 -.21183930875E-04 0.25777774005E-04 0.50256544922E-04 0.12407190435E-03 0.20936755163E-03
 0.34229911350E-03 0.48770025368E-03 0.70784508268E-03 0.83650345980E-03 0.92511952974E-03
 0.83867106623E-03 0.73917950076E-03 0.49807052392E-03 0.40590022389E-03 0.68954406123E-04
 0.11575963958E-03 -.19528760641E-03 -.28118438657E-04 0.61160213483E-03 0.59371266428E-05
 -.52169851005E-03 -.22748362859E-03 -.24951671080E-04 -.14969200905E-03 -.58570248269E-05
 -.27983701892E-04 0.27577564204E-04 -.17156446057E-04 0.14957773019E-04 -.11192341632E-04
 0.54224406773E-05 -.90251787000E-05 -.24199511580E-05 -.27266194710E-05 -.12644543378E-04
 0.26091500076E-05 0.21550646640E-04 0.12433155397E-04 0.23805521618E-03 0.47046428836E-03
 0.91043952153E-03 0.15703205226E-02 0.23585693004E-02 0.30728467379E-02 0.35149587585E-02
 0.35166167944E-02 0.30541165979E-02 0.23300137856E-02 0.15372730709E-02 0.95137097527E-03
 0.50191090975E-03 0.41919540426E-03 0.11575962462E-03 0.98172785046E-04 0.20671254981E-03
 -.20323367626E-03 -.15717948024E-03 -.16801458219E-03 -.14252699148E-03 -.24648685524E-04
 -.27983711342E-04 0.33234657765E-05 -.56102590742E-05 0.29510867860E-05 0.21110099303E-06
 0.10266879439E-05 0.53306435617E-05 0.10832119598E-05 0.10543212387E-04 -.13987462524E-05
 0.25243147170E-04 0.14821141293E-04 0.31657760903E-04 0.12257031282E-03 0.11256423313E-02
 0.23584871271E-02 0.43094931310E-02 0.70566888811E-02 0.10177526571E-01 0.12791025940E-01
 0.13793260573E-01 0.12799537562E-01 0.10205409601E-01 0.70952353978E-02 0.42985380318E-02
 0.23322375677E-02 0.10582043687E-02 0.50191085624E-03 0.68954281385E-04 -.50138521355E-04
 0.21200294314E-03 0.14616079906E-03 -.62969976170E-04 -.94269590716E-04 0.79639651154E-05
 -.27301128503E-04 0.27577314489E-04 -.56099147232E-05 0.11638498106E-04 -.56562930507E-05
 0.55437661654E-05 -.34184256375E-05 -.85983286755E-06 -.13337075845E-05 -.46380473570E-05
 0.13147911845E-04 0.73935634683E-05 0.78943828364E-04 0.21437216907E-03 0.46940407311E-03
 0.52965299566E-02 0.10978764808E-01 0.20274749657E-01 0.32545946977E-01 0.44991381648E-01
 0.53079493394E-01 0.53077408828E-01 0.44966278571E-01 0.32515576513E-01 0.20252269787E-01
 0.11017885706E-01 0.53290996273E-02 0.23322373151E-02 0.95137116599E-03 0.40590013332E-03
 0.11738534779E-03 0.50457977315E-04 0.59387767204E-05 0.35322467870E-04 0.46904358553E-04
 -.71723708312E-05 0.21773534991E-04 -.17156401692E-04 0.29512507922E-05 -.56561921847E-05
 0.46672839877E-05 -.18372732600E-05 0.32600339127E-05 0.41050940785E-05 0.51088714996E-05
 0.21154028306E-04 0.33256872293E-04 0.14133323301E-03 0.33678645256E-03 0.90846493275E-03
 0.23594296883E-02 0.25647528577E-01 0.53093321486E-01 0.96313194951E-01 0.14989114070E+00
 0.19674269813E+00 0.21585806352E+00 0.19676320095E+00 0.14991544449E+00 0.96343579181E-01
 0.53077346991E-01 0.25590987249E-01 0.11017885914E-01 0.42985377271E-02 0.15372732661E-02
 0.49807066258E-03 0.13476212516E-03 0.36699464322E-04 0.42272800526E-04 0.58264876367E-05
 -.28220621108E-04 0.69987730722E-05 -.17297309369E-04 0.14957343861E-04 0.21129680381E-06
 0.55433044814E-05 -.18371835652E-05 0.21808170166E-05 0.19890623184E-06 0.78896523678E-06
 0.16119374884E-04 0.41147687292E-04 0.17857741510E-03 0.49655267048E-03 0.15697188037E-02
 0.43145305832E-02 0.10975545874E-01 0.12521339292E+00 0.26011703982E+00 0.46331964289E+00
 0.69195077721E+00 0.85068527628E+00 0.85067275611E+00 0.69192642723E+00 0.46329117428E+00
 0.26011200055E+00 0.12527158739E+00 0.53077346838E-01 0.20252269647E-01 0.70952351004E-02
 0.23300136678E-02 0.73917920536E-03 0.23998047770E-03 0.69615655587E-04 -.37120175270E-05
 -.23324209678E-05 0.25953099118E-04 -.30936381652E-05 0.17238824192E-04 -.11192862975E-04
 0.10266196036E-05 -.34189058131E-05 0.32599363410E-05 0.19872393865E-06 0.62862754930E-05
 0.20667224267E-04 0.59558208442E-04 0.22383920044E-03 0.70324935039E-03 0.23567551303E-02
 0.70545930579E-02 0.20269600622E-01 0.53096087988E-01 0.62522465082E+00 0.12987391682E+01
 0.22569068591E+01 0.31902281501E+01 0.35901056372E+01 0.31902382140E+01 0.22569413771E+01
 0.12987486157E+01 0.62519127634E+00 0.26011200072E+00 0.96343579219E-01 0.32515576906E-01
 0.10205409352E-01 0.30541166512E-02 0.83867103038E-03 0.22505520793E-03 0.49165114366E-04
 0.38594852261E-04 0.88805530383E-05 -.13729624914E-04 -.25470572463E-05 -.99315787476E-05
 0.54225980513E-05 0.53306326083E-05 -.85962650867E-06 0.41051440171E-05 0.78886496913E-06
 0.20667736284E-04 0.55356551688E-04 0.24657445307E-03 0.84945797641E-03 0.30690513095E-02
 0.10180866698E-01 0.32547678540E-01 0.96315417995E-01 0.26011433058E+00 0.31902023996E+01
 0.66138727062E+01 0.11100508682E+02 0.14532798671E+02 0.14532797131E+02 0.11100475504E+02
 0.66138714852E+01 0.31902249874E+01 0.12987486159E+01 0.46329117417E+00 0.14991544478E+00
 0.44966278604E-01 0.12799537732E-01 0.35166167516E-02 0.92511988080E-03 0.26959720264E-03
 0.60043775074E-04 0.10727008820E-04 -.12878497133E-04 0.22774875856E-04 -.28928130015E-05
 0.17297074982E-04 -.90252419739E-05 0.10831782390E-05 -.13334508927E-05 0.51089206208E-05
 0.16119278675E-04 0.59558104113E-04 0.24657448977E-03 0.91726275115E-03 0.35123068102E-02
 0.12791666394E-01 0.44989935384E-01 0.14989465751E+00 0.46331752765E+00 0.12987491223E+01
 0.16677857717E+02 0.34306304267E+02 0.54467548274E+02 0.63892152620E+02 0.54467567393E+02
 0.34306311085E+02 0.16677845853E+02 0.66138714852E+01 0.22569413773E+01 0.69192642742E+00
 0.19676320076E+00 0.53077408732E-01 0.13793260110E-01 0.35149584971E-02 0.83650352807E-03
 0.21032356571E-03 0.31357125953E-04 0.31992344491E-04 0.55048712891E-05 -.43902960002E-05
 -.98790108585E-05 -.45727113535E-05 -.24197540344E-05 0.10542919298E-04 -.46384120636E-05
 0.21153995472E-04 0.41147670851E-04 0.22383943735E-03 0.84945774099E-03 0.35123068599E-02
 0.13799580744E-01 0.53079688347E-01 0.19674750360E+00 0.69194774210E+00 0.22569203729E+01
 0.66138748105E+01 0.88723530183E+02 0.17801925452E+03 0.25781603049E+03 0.25781602697E+03
 0.17801927522E+03 0.88723539690E+02 0.34306311085E+02 0.11100475504E+02 0.31902382136E+01
 0.85067275661E+00 0.21585806360E+00 0.53079493352E-01 0.12791025971E-01 0.30728467831E-02
 0.70784507624E-03 0.19835093380E-03 0.36348527983E-04 0.11151485015E-04 -.16322636053E-04
 0.16726357267E-04 0.61730986552E-06 0.13968859125E-04 -.27267422891E-05 -.13989427408E-05
 0.13148106255E-04 0.33256906715E-04 0.17857752940E-03 0.70324967147E-03 0.30690509384E-02
 0.12791666362E-01 0.53079688180E-01 0.21585995944E+00 0.85068974582E+00 0.31902308805E+01
 0.11100506366E+02 0.34306317032E+02 0.46314047029E+03 0.86305092514E+03 0.10697481139E+04
 0.86305092408E+03 0.46314043920E+03 0.17801927522E+03 0.54467567393E+02 0.14532797131E+02
 0.35901056371E+01 0.85068527558E+00 0.19674269794E+00 0.44991381714E-01 0.10177526736E-01
 0.23585694300E-02 0.48770014938E-03 0.12744173282E-03 0.17353286896E-06 0.27634307279E-04
 -.19197826681E-05 0.62462321504E-05 -.19282863835E-04 0.39448424900E-05 -.12644740031E-04
 0.25242748136E-04 0.73934564620E-05 0.14133309894E-03 0.49655277216E-03 0.23567551334E-02
 0.10180866714E-01 0.44989935581E-01 0.19674750360E+00 0.85068974596E+00 0.35900956234E+01
 0.14532806248E+02 0.54467556728E+02 0.17801927619E+03 0.20567374285E+04 0.31258574585E+04
 0.31258574822E+04 0.20567374378E+04 0.86305092408E+03 0.25781602697E+03 0.63892152621E+02
 0.14532798671E+02 0.31902281498E+01 0.69195077707E+00 0.14989114060E+00 0.32545947349E-01
 0.70566886999E-02 0.15703204382E-02 0.34229925938E-03 0.93066987454E-04 0.22153476018E-04
 0.31560980680E-05 -.13540976772E-04 0.92424910243E-05 0.40912405220E-05 0.13480154635E-04
 0.26094542674E-05 0.14820979705E-04 0.78943857032E-04 0.33678659178E-03 0.15697187724E-02
 0.70545927194E-02 0.32547678376E-01 0.14989465742E+00 0.69194774200E+00 0.31902308805E+01
 0.14532806248E+02 0.63892157607E+02 0.25781603244E+03 0.86305090649E+03 0.51331316058E+04
 0.64877523948E+04 0.51331316012E+04 0.31258574822E+04 0.10697481139E+04 0.25781603049E+03
 0.54467548275E+02 0.11100508682E+02 0.22569068593E+01 0.46331964272E+00 0.96313195467E-01
 0.20274749825E-01 0.43094933289E-02 0.91043966427E-03 0.20936741936E-03 0.17754756342E-04
 0.14487556020E-04 -.87035636212E-05 0.24473554776E-04 -.16720339405E-04 0.58382829948E-05
 -.21184035652E-04 0.21550825903E-04 0.31657414132E-04 0.21437223229E-03 0.90846490217E-03
 0.43145305771E-02 0.20269600444E-01 0.96315418369E-01 0.46331752783E+00 0.22569203730E+01
 0.11100506366E+02 0.54467556728E+02 0.25781603244E+03 0.10697481025E+04 0.31258574864E+04
 0.52616608634E+05 0.52616608660E+05 0.64877523948E+04 0.31258574585E+04 0.86305092514E+03
 0.17801925452E+03 0.34306304267E+02 0.66138727061E+01 0.12987391679E+01 0.26011703952E+00
 0.53093321189E-01 0.10978764755E-01 0.23584871971E-02 0.47046422040E-03 0.12407163265E-03
 0.27587293542E-04 0.16043496085E-04 0.10972726760E-05 -.14456541971E-04 0.83056269012E-05
 0.10337526810E-05 0.25777819909E-04 0.12433139016E-04 0.12257039543E-03 0.46940419558E-03
 0.23594297510E-02 0.10975545711E-01 0.53096087742E-01 0.26011433031E+00 0.12987491223E+01
 0.66138748103E+01 0.34306317032E+02 0.17801927619E+03 0.86305090649E+03 0.31258574864E+04
 0.64877523596E+04 0.52616608634E+05 0.64877523596E+04 0.31258574864E+04 0.86305090649E+03
 0.17801927619E+03 0.34306317032E+02 0.66138748105E+01 0.12987491223E+01 0.26011433047E+00
 0.53096087736E-01 0.10975545724E-01 0.23594297478E-02 0.46940379026E-03 0.12257039387E-03
 0.12433218084E-04 0.25777818838E-04 0.10338342545E-05 0.83056240885E-05 -.14456183526E-04
 0.10972730666E-05 0.16043647683E-04 0.27587289336E-04 0.12407169775E-03 0.47046421703E-03
 0.23584872948E-02 0.10978764745E-01 0.53093321286E-01 0.26011703952E+00 0.12987391681E+01
 0.66138727061E+01 0.34306304267E+02 0.17801925452E+03 0.86305092514E+03 0.31258574585E+04
 0.64877523948E+04 0.52616608660E+05 0.64877523596E+04 0.37730219547E+04 0.13293609322E+04
 0.31212468151E+03 0.63892143542E+02 0.12686520870E+02 0.25302490145E+01 0.51167286220E+00
 0.10501841950E+00 0.21904388381E-01 0.46188985351E-02 0.97447105472E-03 0.22294504290E-03
 0.36983876851E-04 0.19454536373E-04 -.18594535164E-04 0.35181070053E-05 -.14349802622E-04
 0.22024866105E-04 -.61813748102E-05 0.12423796732E-04 0.23251161681E-04 0.21787907107E-03
 0.97672764052E-03 0.46142867768E-02 0.21904181350E-01 0.10501200094E+00 0.51168863638E+00
 0.25302508034E+01 0.12686552653E+02 0.63892139155E+02 0.31212470225E+03 0.13293609350E+04
 0.37730219362E+04 0.64877523640E+04 0.13398451823E+05 0.31258574864E+04 0.13293609322E+04
 0.37942089333E+03 0.88723550252E+02 0.19179845039E+02 0.40457178265E+01 0.85068077829E+00
 0.17952188060E+00 0.38255019864E-01 0.81554526137E-02 0.17989208096E-02 0.37454055252E-03
 0.92353008417E-04 0.13501909435E-04 0.51427584917E-05 0.11978992310E-04 0.46659060636E-05
 0.90296493521E-05 -.14086718153E-04 0.51160503802E-05 0.21260718836E-04 0.10565801068E-03
 0.38038992522E-03 0.17987535938E-02 0.81595340741E-02 0.38256440304E-01 0.17952074741E+00
 0.85068219194E+00 0.40457109187E+01 0.19179853905E+02 0.88723558166E+02 0.37942087687E+03
 0.13293609490E+04 0.31258574583E+04 0.44420886630E+04 0.44420886867E+04 0.86305090649E+03
 0.31212468151E+03 0.88723550252E+02 0.22106575788E+02 0.51572009194E+01 0.11663211170E+01
 0.26011600764E+00 0.57735453875E-01 0.12773922043E-01 0.28857603299E-02 0.59975986875E-03
 0.16739291008E-03 0.86397974404E-05 0.29208824763E-04 -.15369667197E-04 0.68959918645E-05
 -.22046097389E-04 0.94148006367E-05 -.50260294429E-05 0.31760515278E-04 0.13079244733E-05
 0.15446494777E-03 0.59109318459E-03 0.28850021001E-02 0.12766903810E-01 0.57744408222E-01
 0.26011218368E+00 0.11663390162E+01 0.51571943223E+01 0.22106588499E+02 0.88723549978E+02
 0.31212466097E+03 0.86305091350E+03 0.16541451965E+04 0.20567374389E+04 0.16541451788E+04
 0.17801927619E+03 0.63892143542E+02 0.19179845039E+02 0.51572009193E+01 0.12987218138E+01
 0.31434051630E+00 0.74292875732E-01 0.17374752556E-01 0.40280850591E-02 0.90934593870E-03
 0.22418634060E-03 0.41182661859E-04 0.16885419273E-04 -.27225131002E-05 -.10732559159E-05
 0.12104557779E-04 0.17780465002E-05 0.15030270275E-04 -.14797826066E-04 0.12630627590E-04
 0.46344956380E-04 0.24036634791E-03 0.91856735693E-03 0.40315807601E-02 0.17375654724E-01
 0.74298337140E-01 0.31433537645E+00 0.12987289254E+01 0.51572001343E+01 0.19179842421E+02
 0.63892160828E+02 0.17801924571E+03 0.37942090389E+03 0.56767938089E+03 0.56767938631E+03
 0.37942090255E+03 0.34306317032E+02 0.12686520870E+02 0.40457178264E+01 0.11663211171E+01
 0.31434051663E+00 0.80932617569E-01 0.20273898525E-01 0.49475691599E-02 0.11967808163E-02
 0.28918757772E-03 0.65434706718E-04 0.17154922804E-04 0.29428268220E-05 0.38774269912E-05
 0.36865969950E-05 -.10633570906E-04 -.37991545318E-05 -.98945638222E-05 0.12606019140E-04
 0.27730581936E-04 0.56312134858E-04 0.27473745523E-03 0.11803402031E-02 0.49530025825E-02
 0.20264280626E-01 0.80947365367E-01 0.31433143644E+00 0.11663311320E+01 0.40457294178E+01
 0.12686523209E+02 0.34306323274E+02 0.75170654738E+02 0.12479442226E+03 0.14878499421E+03
 0.12479441588E+03 0.75170630360E+02 0.66138748097E+01 0.25302490145E+01 0.85068077843E+00
 0.26011600739E+00 0.74292875830E-01 0.20273898322E-01 0.53131651967E-02 0.13667151407E-02
 0.34187096351E-03 0.82909445164E-04 0.21686554819E-04 0.58315561000E-05 -.23004474610E-06
 -.46672274895E-06 -.72651433176E-05 0.14356706444E-04 -.47222755681E-06 0.18752773576E-04
 -.85186469802E-05 0.13608012621E-04 0.87802026872E-04 0.36469545743E-03 0.13729587321E-02
 0.53223453318E-02 0.20270643343E-01 0.74301150930E-01 0.26012923902E+00 0.85066352542E+00
 0.25302719652E+01 0.66138583862E+01 0.14532784313E+02 0.25532268174E+02 0.34306304345E+02
 0.34306297371E+02 0.25532296095E+02 0.14532809787E+02 0.12987491227E+01 0.51167286231E+00
 0.17952188094E+00 0.57735453885E-01 0.17374752614E-01 0.49475691227E-02 0.13667154894E-02
 0.35867861243E-03 0.98686006925E-04 0.23041047223E-04 0.81404052950E-05 -.13399152923E-05
 0.39238049742E-05 0.21423768833E-06 0.89380455741E-05 -.13566266753E-04 0.55096795996E-06
 -.15109170837E-04 0.14182573681E-04 0.40606713978E-04 0.84767053283E-04 0.34762705346E-03
 0.13422419701E-02 0.49552302178E-02 0.17364024307E-01 0.57723187658E-01 0.17954407496E+00
 0.51165168633E+00 0.12987578935E+01 0.28398146359E+01 0.51572029181E+01 0.75096065368E+01
 0.85386164264E+01 0.75095904949E+01 0.51571977217E+01 0.28397873823E+01 0.26011432978E+00
 0.10501841945E+00 0.38255020025E-01 0.12773922306E-01 0.40280852113E-02 0.11967806197E-02
 0.34187122431E-03 0.98686098454E-04 0.21622057297E-04 0.88903494879E-05 -.12876588888E-05
 0.51762997411E-05 -.57903437730E-05 0.26271057721E-05 -.13184680192E-04 0.18041197625E-04
 -.50335654615E-05 0.25974871919E-04 -.47028019147E-05 0.12011069906E-04 0.96554449289E-04
 0.37193023260E-03 0.12077307106E-02 0.40331423835E-02 0.12807222708E-01 0.38223312966E-01
 0.10505736153E+00 0.26010365128E+00 0.56561622896E+00 0.10484267780E+01 0.16142374346E+01
 0.20163258653E+01 0.20163272579E+01 0.16142264863E+01 0.10484430478E+01 0.56565207249E+00
 0.53096087361E-01 0.21904388370E-01 0.81554527637E-02 0.28857603871E-02 0.90934588136E-03
 0.28918760947E-03 0.82909766094E-04 0.23041164894E-04 0.88905759040E-05 0.20222780984E-05