unknown system                          
   1.00000000000000     
     0.000000    2.816500    2.816500
     2.816500    0.000000    2.816500
     2.816500    2.816500    0.000000
   Ge
     2
Direct
  0.000000  0.000000  0.000000
  0.250000  0.250000  0.250000
 
   48   48   48
 -7.0067     -6.2503     -4.0811     -.78402      3.2127      7.4050      11.295      14.473      16.675      17.805    
  17.929      17.231      15.967      14.420      12.857      11.471      10.287      9.2848      8.4504      7.7711    
  7.2362      6.8354      6.5586      6.3968      6.3436      6.3968      6.5586      6.8354      7.2362      7.7711    
  8.4504      9.2848      10.287      11.471      12.857      14.420      15.967      17.231      17.929      17.805    
  16.675      14.473      11.295      7.4050      3.2127     -.78402     -4.0811     -6.2503     -6.2503     -4.8084    
 -2.1063      1.5160      5.6088      9.6809      13.278      16.054      17.813      18.525      18.300      17.356    
  15.966      14.415      12.954      11.688      10.606      9.6930      8.9366      8.3273      7.8566      7.5150    
  7.2938      7.1853      7.1853      7.2938      7.5150      7.8566      8.3273      8.9366      9.6930      10.606    
  11.688      12.954      14.415      15.966      17.356      18.300      18.525      17.813      16.054      13.278    
  9.6809      5.6088      1.5160     -2.1063     -4.8084     -6.2503     -4.0811     -2.1063     0.91643      4.6191    
  8.5577      12.279      15.390      17.619      18.842      19.087      18.510      17.352      15.894      14.412    
  13.093      11.954      10.981      10.163      9.4908      8.9577      8.5559      8.2773      8.1139      8.0602    
  8.1139      8.2773      8.5559      8.9577      9.4908      10.163      10.981      11.954      13.093      14.412    
  15.894      17.352      18.510      19.087      18.842      17.619      15.390      12.279      8.5577      4.6191    
 0.91643     -2.1063     -4.0811     -4.7672     -.78402      1.5160      4.6191      8.1555      11.711      14.889    
  17.372      18.964      19.612      19.399      18.514      17.215      15.779      14.443      13.277      12.270    
  11.412      10.695      10.113      9.6613      9.3319      9.1180      9.0129      9.0129      9.1180      9.3319    
  9.6613      10.113      10.695      11.412      12.270      13.277      14.443      15.779      17.215      18.514    
  19.399      19.612      18.964      17.372      14.889      11.711      8.1555      4.6191      1.5160     -.78402    
 -2.0066     -2.0066      3.2127      5.6088      8.5577      11.711      14.704      17.209      18.988      19.920    
  20.017      19.409      18.309      16.980      15.672      14.515      13.506      12.637      11.899      11.289    
  10.803      10.435      10.179      10.029      9.9793      10.029      10.179      10.435      10.803      11.289    
  11.899      12.637      13.506      14.515      15.672      16.980      18.309      19.409      20.017      19.920    
  18.988      17.209      14.704      11.711      8.5577      5.6088      3.2127      1.6527      1.1117      1.6527    
  7.4050      9.6809      12.279      14.889      17.209      18.986      20.059      20.379      20.012      19.125    
  17.945      16.716      15.606      14.631      13.782      13.053      12.441      11.942      11.554      11.270    
  11.085      10.994      10.994      11.085      11.270      11.554      11.942      12.441      13.053      13.782    
  14.631      15.606      16.716      17.945      19.125      20.012      20.379      20.059      18.986      17.209    
  14.889      12.279      9.6809      7.4050      5.7213      4.8276      4.8276      5.7213      11.295      13.278    
  15.390      17.372      18.988      20.059      20.497      20.316      19.628      18.619      17.512      16.489    
  15.584      14.790      14.103      13.519      13.035      12.648      12.350      12.138      12.011      11.969    
  12.011      12.138      12.350      12.648      13.035      13.519      14.103      14.790      15.584      16.489    
  17.512      18.619      19.628      20.316      20.497      20.059      18.988      17.372      15.390      13.278    
  11.295      9.6822      8.6319      8.2678      8.6319      9.6822      14.473      16.054      17.619      18.964    
  19.920      20.379      20.316      19.797      18.966      18.011      17.111      16.311      15.606      14.993    
  14.468      14.028      13.661      13.361      13.130      12.972      12.891      12.891      12.972      13.130    
  13.361      13.661      14.028      14.468      14.993      15.606      16.311      17.111      18.011      18.966    
  19.797      20.316      20.379      19.920      18.964      17.619      16.054      14.473      13.078      12.043    
  11.493      11.493      12.043      13.078      16.675      17.813      18.842      19.612      20.017      20.012    
  19.628      18.966      18.182      17.433      16.766      16.181      15.672      15.238      14.866      14.539    
  14.252      14.012      13.829      13.715      13.676      13.715      13.829      14.012      14.252      14.539    
  14.866      15.238      15.672      16.181      16.766      17.433      18.182      18.966      19.628      20.012    
  20.017      19.612      18.842      17.813      16.675      15.585      14.689      14.103      13.900      14.103    
  14.689      15.585      17.805      18.525      19.087      19.399      19.409      19.125      18.619      18.011    
  17.433      16.922      16.478      16.098      15.779      15.499      15.236      14.983      14.750      14.553    
  14.410      14.335      14.335      14.410      14.553      14.750      14.983      15.236      15.499      15.779    
  16.098      16.478      16.922      17.433      18.011      18.619      19.125      19.409      19.399      19.087    
  18.525      17.805      17.045      16.357      15.841      15.565      15.565      15.841      16.357      17.045    
  17.929      18.300      18.510      18.514      18.309      17.945      17.512      17.111      16.766      16.478    
  16.243      16.058      15.894      15.719      15.524      15.318      15.123      14.963      14.858      14.821    
  14.858      14.963      15.123      15.318      15.524      15.719      15.894      16.058      16.243      16.478    
  16.766      17.111      17.512      17.945      18.309      18.514      18.510      18.300      17.929      17.471    
  17.008      16.616      16.356      16.265      16.356      16.616      17.008      17.471      17.231      17.356    
  17.352      17.215      16.980      16.716      16.489      16.311      16.181      16.098      16.058      16.028    
  15.966      15.855      15.703      15.532      15.371      15.247      15.179      15.179      15.247      15.371    
  15.532      15.703      15.855      15.966      16.028      16.058      16.098      16.181      16.311      16.489    
  16.716      16.980      17.215      17.352      17.356      17.231      17.011      16.746      16.491      16.292    
  16.185      16.185      16.292      16.491      16.746      17.011      15.967      15.966      15.894      15.779    
  15.672      15.606      15.584      15.606      15.672      15.779      15.894      15.966      15.967      15.897    
  15.777      15.638      15.511      15.424      15.393      15.424      15.511      15.638      15.777      15.897    
  15.967      15.966      15.894      15.779      15.672      15.606      15.584      15.606      15.672      15.779    
  15.894      15.966      15.967      15.897      15.777      15.638      15.511      15.424      15.393      15.424    
  15.511      15.638      15.777      15.897      14.420      14.415      14.412      14.443      14.515      14.631    
  14.790      14.993      15.238      15.499      15.719      15.855      15.897      15.859      15.769      15.664    
  15.574      15.523      15.523      15.574      15.664      15.769      15.859      15.897      15.855      15.719    
  15.499      15.238      14.993      14.790      14.631      14.515      14.443      14.412      14.415      14.420    
  14.402      14.356      14.290      14.219      14.161      14.129      14.129      14.161      14.219      14.290    
  14.356      14.402      12.857      12.954      13.093      13.277      13.506      13.782      14.103      14.468    
  14.866      15.236      15.524      15.703      15.777      15.769      15.713      15.644      15.591      15.571    
  15.591      15.644      15.713      15.769      15.777      15.703      15.524      15.236      14.866      14.468    
  14.103      13.782      13.506      13.277      13.093      12.954      12.857      12.793      12.742      12.694    
  12.647      12.607      12.579      12.569      12.579      12.607      12.647      12.694      12.742      12.793    
  11.471      11.688      11.954      12.270      12.637      13.053      13.519      14.028      14.539      14.983    
  15.318      15.532      15.638      15.664      15.644      15.611      15.589      15.589      15.611      15.644    
  15.664      15.638      15.532      15.318      14.983      14.539      14.028      13.519      13.053      12.637    
  12.270      11.954      11.688      11.471      11.302      11.174      11.083      11.016      10.967      10.934    
  10.917      10.917      10.934      10.967      11.016      11.083      11.174      11.302      10.287      10.606    
  10.981      11.412      11.899      12.441      13.035      13.661      14.252      14.750      15.123      15.371    
  15.511      15.574      15.591      15.589      15.586      15.589      15.591      15.574      15.511      15.371    
  15.123      14.750      14.252      13.661      13.035      12.441      11.899      11.412      10.981      10.606    
  10.287      10.021      9.8074      9.6406      9.5151      9.4246      9.3639      9.3289      9.3175      9.3289    
  9.3639      9.4246      9.5151      9.6406      9.8074      10.021      9.2848      9.6930      10.163      10.695    
  11.289      11.942      12.648      13.361      14.012      14.553      14.963      15.247      15.424      15.523    
  15.571      15.589      15.589      15.571      15.523      15.424      15.247      14.963      14.553      14.012    
  13.361      12.648      11.942      11.289      10.695      10.163      9.6930      9.2848      8.9373      8.6483    
  8.4143      8.2304      8.0911      7.9913      7.9268      7.8952      7.8952      7.9268      7.9913      8.0911    
  8.2304      8.4143      8.6483      8.9373      8.4504      8.9366      9.4908      10.113      10.803      11.554    
  12.350      13.130      13.829      14.410      14.858      15.179      15.393      15.523      15.591      15.611    
  15.591      15.523      15.393      15.179      14.858      14.410      13.829      13.130      12.350      11.554    
  10.803      10.113      9.4908      8.9366      8.4504      8.0313      7.6772      7.3845      7.1488      6.9647    
  6.8270      6.7314      6.6752      6.6566      6.6752      6.7314      6.8270      6.9647      7.1488      7.3845    
  7.6772      8.0313      7.7711      8.3273      8.9577      9.6613      10.435      11.270      12.138      12.972    
  13.715      14.335      14.821      15.179      15.424      15.574      15.644      15.644      15.574      15.424    
  15.179      14.821      14.335      13.715      12.972      12.138      11.270      10.435      9.6613      8.9577    
  8.3273      7.7711      7.2881      6.8761      6.5316      6.2498      6.0252      5.8523      5.7265      5.6442    
  5.6035      5.6035      5.6442      5.7265      5.8523      6.0252      6.2498      6.5316      6.8761      7.2881    
  7.2362      7.8566      8.5559      9.3319      10.179      11.085      12.011      12.891      13.676      14.335    
  14.858      15.247      15.511      15.664      15.713      15.664      15.511      15.247      14.858      14.335    
  13.676      12.891      12.011      11.085      10.179      9.3319      8.5559      7.8566      7.2362      6.6947    
  6.2299      5.8382      5.5145      5.2531      5.0477      4.8931      4.7851      4.7212      4.7001      4.7212    
  4.7851      4.8931      5.0477      5.2531      5.5145      5.8382      6.2299      6.6947      6.8354      7.5150    
  8.2773      9.1180      10.029      10.994      11.969      12.891      13.715      14.410      14.963      15.371    
  15.638      15.769      15.769      15.638      15.371      14.963      14.410      13.715      12.891      11.969    
  10.994      10.029      9.1180      8.2773      7.5150      6.8354      6.2393      5.7250      5.2891      4.9263    
  4.6303      4.3945      4.2127      4.0801      3.9933      3.9502      3.9502      3.9933      4.0801      4.2127    
  4.3945      4.6303      4.9263      5.2891      5.7250      6.2393      6.5586      7.2938      8.1139      9.0129    
  9.9793      10.994      12.011      12.972      13.829      14.553      15.123      15.532      15.777      15.859    
  15.777      15.532      15.123      14.553      13.829      12.972      12.011      10.994      9.9793      9.0129    
  8.1139      7.2938      6.5586      5.9107      5.3491      4.8707      4.4702      4.1410      3.8759      3.6681    
  3.5117      3.4026      3.3380      3.3166      3.3380      3.4026      3.5117      3.6681      3.8759      4.1410    
  4.4702      4.8707      5.3491      5.9107      6.3968      7.1853      8.0602      9.0129      10.029      11.085    
  12.138      13.130      14.012      14.750      15.318      15.703      15.897      15.897      15.703      15.318    
  14.750      14.012      13.130      12.138      11.085      10.029      9.0129      8.0602      7.1853      6.3968    
  5.6985      5.0906      4.5704      4.1326      3.7704      3.4763      3.2428      3.0633      2.9326      2.8471    
  2.8049      2.8049      2.8471      2.9326      3.0633      3.2428      3.4763      3.7704      4.1326      4.5704    
  5.0906      5.6985      6.3436      7.1853      8.1139      9.1180      10.179      11.270      12.350      13.361    
  14.252      14.983      15.524      15.855      15.967      15.855      15.524      14.983      14.252      13.361    
  12.350      11.270      10.179      9.1180      8.1139      7.1853      6.3436      5.5947      4.9399      4.3771    
  3.9013      3.5056      3.1820      2.9225      2.7198      2.5677      2.4620      2.3995      2.3789      2.3995    
  2.4620      2.5677      2.7198      2.9225      3.1820      3.5056      3.9013      4.3771      4.9399      5.5947    
  6.3968      7.2938      8.2773      9.3319      10.435      11.554      12.648      13.661      14.539      15.236    
  15.719      15.966      15.966      15.719      15.236      14.539      13.661      12.648      11.554      10.435    
  9.3319      8.2773      7.2938      6.3968      5.5947      4.8905      4.2828      3.7668      3.3356      2.9810    
  2.6943      2.4676      2.2939      2.1680      2.0860      2.0455      2.0455      2.0860      2.1680      2.2939    
  2.4676      2.6943      2.9809      3.3356      3.7668      4.2828      4.8905      5.5947      6.5586      7.5150    
  8.5559      9.6613      10.803      11.942      13.035      14.028      14.866      15.499      15.894      16.028    
  15.894      15.499      14.866      14.028      13.035      11.942      10.803      9.6613      8.5559      7.5150    
  6.5586      5.6985      4.9399      4.2828      3.7227      3.2527      2.8642      2.5481      2.2956      2.0993    
  1.9527      1.8512      1.7915      1.7719      1.7915      1.8512      1.9527      2.0993      2.2956      2.5481    
  2.8642      3.2527      3.7227      4.2828      4.9399      5.6985      6.8354      7.8566      8.9577      10.113    
  11.289      12.441      13.519      14.468      15.238      15.779      16.058      16.058      15.779      15.238    
  14.468      13.519      12.441      11.289      10.113      8.9577      7.8566      6.8354      5.9107      5.0906    
  4.3771      3.7668      3.2527      2.8259      2.4767      2.1958      1.9746      1.8061      1.6845      1.6057    
  1.5670      1.5670      1.6057      1.6845      1.8061      1.9746      2.1958      2.4767      2.8259      3.2527    
  3.7668      4.3771      5.0906      5.9107      7.2362      8.3273      9.4908      10.695      11.899      13.053    
  14.103      14.993      15.672      16.098      16.243      16.098      15.672      14.993      14.103      13.053    
  11.899      10.695      9.4908      8.3273      7.2362      6.2393      5.3491      4.5704      3.9013      3.3356    
  2.8642      2.4767      2.1631      1.9138      1.7209      1.5777      1.4791      1.4214      1.4025      1.4214    
  1.4791      1.5777      1.7209      1.9138      2.1631      2.4767      2.8642      3.3356      3.9013      4.5704    
  5.3491      6.2393      7.7711      8.9366      10.163      11.412      12.637      13.782      14.790      15.606    
  16.181      16.478      16.478      16.181      15.606      14.790      13.782      12.637      11.412      10.163    
  8.9366      7.7711      6.6947      5.7250      4.8707      4.1326      3.5056      2.9810      2.5481      2.1958    
  1.9138      1.6930      1.5257      1.4056      1.3282      1.2903      1.2903      1.3282      1.4056      1.5257    
  1.6930      1.9138      2.1958      2.5481      2.9809      3.5056      4.1326      4.8707      5.7250      6.6947    
  8.4504      9.6930      10.981      12.270      13.506      14.631      15.584      16.311      16.766      16.922    
  16.766      16.311      15.584      14.631      13.506      12.270      10.981      9.6930      8.4504      7.2881    
  6.2299      5.2891      4.4702      3.7704      3.1820      2.6943      2.2956      1.9746      1.7209      1.5257    
  1.3815      1.2828      1.2252      1.2063      1.2252      1.2828      1.3815      1.5257      1.7209      1.9746    
  2.2956      2.6943      3.1820      3.7704      4.4702      5.2891      6.2299      7.2881      9.2848      10.606    
  11.954      13.277      14.515      15.606      16.489      17.111      17.433      17.433      17.111      16.489    
  15.606      14.515      13.277      11.954      10.606      9.2848      8.0313      6.8761      5.8382      4.9263    
  4.1410      3.4763      2.9225      2.4676      2.0993      1.8061      1.5777      1.4056      1.2828      1.2039    
  1.1653      1.1653      1.2039      1.2828      1.4056      1.5777      1.8061      2.0993      2.4676      2.9225    
  3.4763      4.1410      4.9263      5.8382      6.8761      8.0313      10.287      11.688      13.093      14.443    
  15.672      16.716      17.512      18.011      18.182      18.011      17.512      16.716      15.672      14.443    
  13.093      11.688      10.287      8.9373      7.6772      6.5316      5.5145      4.6303      3.8759      3.2428    
  2.7198      2.2939      1.9527      1.6845      1.4791      1.3282      1.2252      1.1653      1.1457      1.1653    
  1.2252      1.3282      1.4791      1.6845      1.9527      2.2939      2.7198      3.2428      3.8759      4.6303    
  5.5145      6.5316      7.6772      8.9373      11.471      12.954      14.412      15.779      16.980      17.945    
  18.619      18.966      18.966      18.619      17.945      16.980      15.779      14.412      12.954      11.471    
  10.021      8.6483      7.3845      6.2498      5.2531      4.3945      3.6681      3.0633      2.5677      2.1680    
  1.8512      1.6057      1.4214      1.2903      1.2063      1.1653      1.1653      1.2063      1.2903      1.4214    
  1.6057      1.8512      2.1680      2.5677      3.0633      3.6681      4.3945      5.2531      6.2498      7.3845    
  8.6483      10.021      12.857      14.415      15.894      17.215      18.309      19.125      19.628      19.797    
  19.628      19.125      18.309      17.215      15.894      14.415      12.857      11.302      9.8074      8.4143    
  7.1488      6.0252      5.0477      4.2127      3.5117      2.9326      2.4620      2.0860      1.7915      1.5670    
  1.4025      1.2903      1.2252      1.2039      1.2252      1.2903      1.4025      1.5670      1.7915      2.0860    
  2.4620      2.9326      3.5117      4.2127      5.0477      6.0252      7.1488      8.4143      9.8074      11.302    
  14.420      15.966      17.352      18.514      19.409      20.012      20.316      20.316      20.012      19.409    
  18.514      17.352      15.966      14.420      12.793      11.174      9.6406      8.2304      6.9647      5.8523    
  4.8931      4.0801      3.4026      2.8471      2.3995      2.0455      1.7719      1.5670      1.4214      1.3282    
  1.2828      1.2828      1.3282      1.4214      1.5670      1.7719      2.0455      2.3995      2.8471      3.4026    
  4.0801      4.8931      5.8523      6.9647      8.2304      9.6406      11.174      12.793      15.967      17.356    
  18.510      19.399      20.017      20.379      20.497      20.379      20.017      19.399      18.510      17.356    
  15.967      14.402      12.742      11.083      9.5151      8.0911      6.8270      5.7265      4.7851      3.9933    
  3.3380      2.8049      2.3789      2.0455      1.7915      1.6057      1.4791      1.4056      1.3815      1.4056    
  1.4791      1.6057      1.7915      2.0455      2.3789      2.8049      3.3380      3.9933      4.7851      5.7265    
  6.8270      8.0911      9.5151      11.083      12.742      14.402      17.231      18.300      19.087      19.612    
  19.920      20.059      20.059      19.920      19.612      19.087      18.300      17.231      15.897      14.356    
  12.694      11.016      9.4246      7.9913      6.7314      5.6442      4.7212      3.9502      3.3166      2.8049    
  2.3995      2.0860      1.8512      1.6845      1.5777      1.5257      1.5257      1.5777      1.6845      1.8512    
  2.0860      2.3995      2.8049      3.3166      3.9502      4.7212      5.6442      6.7314      7.9913      9.4246    
  11.016      12.694      14.356      15.897      17.929      18.525      18.842      18.964      18.988      18.986    
  18.988      18.964      18.842      18.525      17.929      17.011      15.777      14.290      12.647      10.967    
  9.3639      7.9268      6.6752      5.6035      4.7001      3.9502      3.3380      2.8471      2.4620      2.1680    
  1.9527      1.8061      1.7209      1.6930      1.7209      1.8061      1.9527      2.1680      2.4620      2.8471    
  3.3380      3.9502      4.7001      5.6035      6.6752      7.9268      9.3639      10.967      12.647      14.290    
  15.777      17.011      17.805      17.813      17.619      17.372      17.209      17.209      17.372      17.619    
  17.813      17.805      17.471      16.746      15.638      14.219      12.607      10.934      9.3289      7.8952    
  6.6566      5.6035      4.7212      3.9933      3.4026      2.9326      2.5677      2.2939      2.0993      1.9746    
  1.9138      1.9138      1.9746      2.0993      2.2939      2.5677      2.9326      3.4026      3.9933      4.7212    
  5.6035      6.6566      7.8952      9.3289      10.934      12.607      14.219      15.638      16.746      17.471    
  16.675      16.054      15.390      14.889      14.704      14.889      15.390      16.054      16.675      17.045    
  17.008      16.491      15.511      14.161      12.579      10.917      9.3175      7.8952      6.6752      5.6442    
  4.7851      4.0801      3.5117      3.0633      2.7198      2.4676      2.2956      2.1958      2.1631      2.1958    
  2.2956      2.4676      2.7198      3.0633      3.5117      4.0801      4.7851      5.6442      6.6752      7.8952    
  9.3175      10.917      12.579      14.161      15.511      16.491      17.008      17.045      14.473      13.278    
  12.279      11.711      11.711      12.279      13.278      14.473      15.585      16.357      16.616      16.292    
  15.424      14.129      12.569      10.917      9.3289      7.9268      6.7314      5.7265      4.8931      4.2127    
  3.6681      3.2428      2.9225      2.6943      2.5481      2.4767      2.4767      2.5481      2.6943      2.9225    
  3.2428      3.6681      4.2127      4.8931      5.7265      6.7314      7.9268      9.3289      10.917      12.569    
  14.129      15.424      16.292      16.616      16.357      15.585      11.295      9.6809      8.5577      8.1555    
  8.5577      9.6809      11.295      13.078      14.689      15.841      16.356      16.185      15.393      14.129    
  12.579      10.934      9.3639      7.9913      6.8270      5.8523      5.0477      4.3945      3.8759      3.4763    
  3.1820      2.9809      2.8642      2.8259      2.8642      2.9809      3.1820      3.4763      3.8759      4.3945    
  5.0477      5.8523      6.8270      7.9913      9.3639      10.934      12.579      14.129      15.393      16.185    
  16.356      15.841      14.689      13.078      7.4050      5.6088      4.6191      4.6191      5.6088      7.4050    
  9.6822      12.043      14.103      15.565      16.265      16.185      15.424      14.161      12.607      10.967    
  9.4246      8.0911      6.9647      6.0252      5.2531      4.6303      4.1410      3.7704      3.5056      3.3356    
  3.2527      3.2527      3.3356      3.5056      3.7704      4.1410      4.6303      5.2531      6.0252      6.9647    
  8.0911      9.4246      10.967      12.607      14.161      15.424      16.185      16.265      15.565      14.103    
  12.043      9.6822      3.2127      1.5160     0.91643      1.5160      3.2127      5.7213      8.6319      11.493    
  13.900      15.565      16.356      16.292      15.511      14.219      12.647      11.016      9.5151      8.2304    
  7.1488      6.2498      5.5145      4.9263      4.4702      4.1326      3.9013      3.7668      3.7227      3.7668    
  3.9013      4.1326      4.4702      4.9263      5.5145      6.2498      7.1488      8.2304      9.5151      11.016    
  12.647      14.219      15.511      16.292      16.356      15.565      13.900      11.493      8.6319      5.7213    
 -.78402     -2.1063     -2.1063     -.78402      1.6527      4.8276      8.2678      11.493      14.103      15.841    
  16.616      16.491      15.638      14.290      12.694      11.083      9.6406      8.4143      7.3845      6.5316    
  5.8382      5.2891      4.8707      4.5704      4.3771      4.2828      4.2828      4.3771      4.5704      4.8707    
  5.2891      5.8382      6.5316      7.3845      8.4143      9.6406      11.083      12.694      14.290      15.638    
  16.491      16.616      15.841      14.103      11.493      8.2678      4.8276      1.6527     -4.0811     -4.8084    
 -4.0811     -2.0066      1.1117      4.8276      8.6319      12.043      14.689      16.357      17.008      16.746    
  15.777      14.356      12.742      11.174      9.8074      8.6483      7.6772      6.8761      6.2299      5.7250    
  5.3491      5.0906      4.9399      4.8905      4.9399      5.0906      5.3491      5.7250      6.2299      6.8761    
  7.6772      8.6483      9.8074      11.174      12.742      14.356      15.777      16.746      17.008      16.357    
  14.689      12.043      8.6319      4.8276      1.1117     -2.0066     -6.2503     -6.2503     -4.7672     -2.0066    
  1.6527      5.7213      9.6822      13.078      15.585      17.045      17.471      17.011      15.897      14.402    
  12.793      11.302      10.021      8.9373      8.0313      7.2881      6.6947      6.2393      5.9107      5.6985    
  5.5947      5.5947      5.6985      5.9107      6.2393      6.6947      7.2881      8.0313      8.9373      10.021    
  11.302      12.793      14.402      15.897      17.011      17.471      17.045      15.585      13.078      9.6822    
  5.7213      1.6527     -2.0066     -4.7672     -6.2503     -4.8084     -2.1063      1.5160      5.6088      9.6809    
  13.278      16.054      17.813      18.525      18.300      17.356      15.966      14.415      12.954      11.688    
  10.606      9.6930      8.9366      8.3273      7.8566      7.5150      7.2938      7.1853      7.1853      7.2938    
  7.5150      7.8566      8.3273      8.9366      9.6930      10.606      11.688      12.954      14.415      15.966    
  17.356      18.300      18.525      17.813      16.054      13.278      9.6809      5.6088      1.5160     -2.1063    
 -4.8084     -6.2503     -4.8084     -2.7831     0.31940      4.1246      8.1793      12.020      15.244      17.571    
  18.872      19.172      18.629      17.486      16.028      14.536      13.205      12.056      11.075      10.249    
  9.5705      9.0323      8.6266      8.3453      8.1804      8.1261      8.1804      8.3453      8.6266      9.0323    
  9.5705      10.249      11.075      12.056      13.205      14.536      16.028      17.486      18.629      19.172    
  18.872      17.571      15.244      12.020      8.1793      4.1246     0.31940     -2.7831     -4.8084     -5.5117    
 -2.1063     0.31940      3.5986      7.3467      11.131      14.535      17.223      18.986      19.763      19.634    
  18.794      17.507      16.058      14.698      13.510      12.485      11.611      10.880      10.287      9.8255    
  9.4895      9.2711      9.1638      9.1638      9.2711      9.4895      9.8255      10.287      10.880      11.611    
  12.485      13.510      14.698      16.058      17.507      18.794      19.634      19.763      18.986      17.223    
  14.535      11.131      7.3467      3.5986     0.31940     -2.1063     -3.3942     -3.3942      1.5160      4.1246    