unknown system                          
   1.00000000000000     
     0.000000    2.816500    2.816500
     2.816500    0.000000    2.816500
     2.816500    2.816500    0.000000
   Ge
     2
Direct
  0.000000  0.000000  0.000000
  0.250000  0.250000  0.250000
 
   48   48   48
 -6.8480     -6.0829     -3.8932     -.57828      3.4176      7.5807      11.415      14.523      16.656      17.737    
  17.835      17.135      15.886      14.360      12.820      11.453      10.282      9.2884      8.4596      7.7843    
  7.2525      6.8540      6.5787      6.4177      6.3648      6.4177      6.5787      6.8540      7.2525      7.7843    
  8.4596      9.2884      10.282      11.453      12.820      14.360      15.886      17.135      17.835      17.737    
  16.656      14.523      11.415      7.5807      3.4176     -.57828     -3.8932     -6.0829     -6.0829     -4.6257    
 -1.9037      1.7272      5.8037      9.8308      13.362      16.065      17.762      18.434      18.196      17.259    
  15.889      14.361      12.921      11.672      10.601      9.6948      8.9431      8.3375      7.8694      7.5298    
  7.3097      7.2017      7.2017      7.3097      7.5298      7.8694      8.3375      8.9431      9.6948      10.601    
  11.672      12.921      14.361      15.889      17.259      18.196      18.434      17.762      16.065      13.362    
  9.8308      5.8037      1.7272     -1.9037     -4.6257     -6.0829     -3.8932     -1.9037      1.1288      4.8226    
  8.7254      12.386      15.426      17.586      18.759      18.979      18.401      17.258      15.823      14.364    
  13.064      11.939      10.974      10.162      9.4933      8.9631      8.5635      8.2862      8.1236      8.0700    
  8.1236      8.2862      8.5635      8.9631      9.4933      10.162      10.974      11.939      13.064      14.364    
  15.823      17.258      18.401      18.979      18.759      17.586      15.426      12.386      8.7254      4.8226    
  1.1288     -1.9037     -3.8932     -4.5859     -.57828      1.7272      4.8226      8.3291      11.831      14.941    
  17.354      18.890      19.504      19.281      18.406      17.128      15.716      14.401      13.250      12.254    
  11.402      10.688      10.110      9.6597      9.3319      9.1186      9.0139      9.0139      9.1186      9.3319    
  9.6597      10.110      10.688      11.402      12.254      13.250      14.401      15.716      17.128      18.406    
  19.281      19.504      18.890      17.354      14.941      11.831      8.3291      4.8226      1.7272     -.57828    
 -1.8076     -1.8076      3.4176      5.8037      8.7254      11.831      14.761      17.200      18.920      19.814    
  19.895      19.291      18.209      16.903      15.617      14.477      13.479      12.616      11.882      11.275    
  10.790      10.424      10.169      10.019      9.9694      10.019      10.169      10.424      10.790      11.275    
  11.882      12.616      13.479      14.477      15.617      16.903      18.209      19.291      19.895      19.814    
  18.920      17.200      14.761      11.831      8.7254      5.8037      3.4176      1.8581      1.3162      1.8581    
  7.5807      9.8308      12.386      14.941      17.200      18.921      19.954      20.254      19.888      19.015    
  17.856      16.649      15.557      14.593      13.751      13.025      12.415      11.918      11.531      11.248    
  11.063      10.972      10.972      11.063      11.248      11.531      11.918      12.415      13.025      13.751    
  14.593      15.557      16.649      17.856      19.015      19.888      20.254      19.954      18.921      17.200    
  14.941      12.386      9.8308      7.5807      5.9094      5.0198      5.0198      5.9094      11.415      13.362    
  15.426      17.354      18.920      19.954      20.371      20.187      19.511      18.522      17.436      16.430    
  15.537      14.749      14.065      13.481      12.999      12.612      12.315      12.103      11.976      11.933    
  11.976      12.103      12.315      12.612      12.999      13.481      14.065      14.749      15.537      16.430    
  17.436      18.522      19.511      20.187      20.371      19.954      18.920      17.354      15.426      13.362    
  11.415      9.8256      8.7876      8.4271      8.7876      9.8256      14.523      16.065      17.586      18.890    
  19.814      20.254      20.187      19.679      18.865      17.929      17.045      16.256      15.557      14.946    
  14.421      13.980      13.613      13.314      13.082      12.924      12.843      12.843      12.924      13.082    
  13.314      13.613      13.980      14.421      14.946      15.557      16.256      17.045      17.929      18.865    
  19.679      20.187      20.254      19.814      18.890      17.586      16.065      14.523      13.158      12.142    
  11.601      11.601      12.142      13.158      16.656      17.762      18.759      19.504      19.895      19.888    
  19.511      18.865      18.098      17.363      16.706      16.125      15.617      15.181      14.808      14.480    
  14.193      13.953      13.771      13.656      13.617      13.656      13.771      13.953      14.193      14.480    
  14.808      15.181      15.617      16.125      16.706      17.363      18.098      18.865      19.511      19.888    
  19.895      19.504      18.759      17.762      16.656      15.595      14.722      14.149      13.950      14.149    
  14.722      15.595      17.737      18.434      18.979      19.281      19.291      19.015      18.522      17.929    
  17.363      16.860      16.419      16.038      15.716      15.433      15.168      14.914      14.681      14.485    
  14.342      14.267      14.267      14.342      14.485      14.681      14.914      15.168      15.433      15.716    
  16.038      16.419      16.860      17.363      17.929      18.522      19.015      19.291      19.281      18.979    
  18.434      17.737      16.998      16.330      15.828      15.559      15.559      15.828      16.330      16.998    
  17.835      18.196      18.401      18.406      18.209      17.856      17.436      17.045      16.706      16.419    
  16.182      15.992      15.823      15.645      15.448      15.243      15.048      14.889      14.784      14.748    
  14.784      14.889      15.048      15.243      15.448      15.645      15.823      15.992      16.182      16.419    
  16.706      17.045      17.436      17.856      18.209      18.406      18.401      18.196      17.835      17.390    
  16.940      16.559      16.306      16.218      16.306      16.559      16.940      17.390      17.135      17.259    
  17.258      17.128      16.903      16.649      16.430      16.256      16.125      16.038      15.992      15.955    
  15.889      15.775      15.623      15.453      15.293      15.169      15.102      15.102      15.169      15.293    
  15.453      15.623      15.775      15.889      15.955      15.992      16.038      16.125      16.256      16.430    
  16.649      16.903      17.128      17.258      17.259      17.135      16.919      16.661      16.412      16.218    
  16.113      16.113      16.218      16.412      16.661      16.919      15.886      15.889      15.823      15.716    
  15.617      15.557      15.537      15.557      15.617      15.716      15.823      15.889      15.886      15.815    
  15.695      15.557      15.432      15.346      15.315      15.346      15.432      15.557      15.695      15.815    
  15.886      15.889      15.823      15.716      15.617      15.557      15.537      15.557      15.617      15.716    
  15.823      15.889      15.886      15.815      15.695      15.557      15.432      15.346      15.315      15.346    
  15.432      15.557      15.695      15.815      14.360      14.361      14.364      14.401      14.477      14.593    
  14.749      14.946      15.181      15.433      15.645      15.775      15.815      15.776      15.688      15.584    
  15.496      15.446      15.446      15.496      15.584      15.688      15.776      15.815      15.775      15.645    
  15.433      15.181      14.946      14.749      14.593      14.477      14.401      14.364      14.361      14.360    
  14.339      14.290      14.223      14.151      14.093      14.060      14.060      14.093      14.151      14.223    
  14.290      14.339      12.820      12.921      13.064      13.250      13.479      13.751      14.065      14.421    
  14.808      15.168      15.448      15.623      15.695      15.688      15.634      15.567      15.515      15.495    
  15.515      15.567      15.634      15.688      15.695      15.623      15.448      15.168      14.808      14.421    
  14.065      13.751      13.479      13.250      13.064      12.921      12.820      12.752      12.699      12.648    
  12.599      12.556      12.527      12.517      12.527      12.556      12.599      12.648      12.699      12.752    
  11.453      11.672      11.939      12.254      12.616      13.025      13.481      13.980      14.480      14.914    
  15.243      15.453      15.557      15.584      15.567      15.536      15.515      15.515      15.536      15.567    
  15.584      15.557      15.453      15.243      14.914      14.480      13.980      13.481      13.025      12.616    
  12.254      11.939      11.672      11.453      11.281      11.152      11.058      10.989      10.937      10.902    
  10.884      10.884      10.902      10.937      10.989      11.058      11.152      11.281      10.282      10.601    
  10.974      11.402      11.882      12.415      12.999      13.613      14.193      14.681      15.048      15.293    
  15.432      15.496      15.515      15.515      15.513      15.515      15.515      15.496      15.432      15.293    
  15.048      14.681      14.193      13.613      12.999      12.415      11.882      11.402      10.974      10.601    
  10.282      10.016      9.8010      9.6329      9.5059      9.4138      9.3515      9.3153      9.3034      9.3153    
  9.3515      9.4138      9.5059      9.6329      9.8010      10.016      9.2884      9.6948      10.162      10.688    
  11.275      11.918      12.612      13.314      13.953      14.485      14.889      15.169      15.346      15.446    
  15.495      15.515      15.515      15.495      15.446      15.346      15.169      14.889      14.485      13.953    
  13.314      12.612      11.918      11.275      10.688      10.162      9.6948      9.2884      8.9418      8.6532    
  8.4192      8.2349      8.0948      7.9939      7.9284      7.8961      7.8961      7.9284      7.9939      8.0948    
  8.2349      8.4192      8.6532      8.9418      8.4596      8.9431      9.4933      10.110      10.790      11.531    
  12.315      13.082      13.771      14.342      14.784      15.102      15.315      15.446      15.515      15.536    
  15.515      15.446      15.315      15.102      14.784      14.342      13.771      13.082      12.315      11.531    
  10.790      10.110      9.4933      8.9431      8.4596      8.0423      7.6893      7.3976      7.1623      6.9782    
  6.8400      6.7438      6.6869      6.6681      6.6869      6.7438      6.8400      6.9782      7.1623      7.3976    
  7.6893      8.0423      7.7843      8.3375      8.9631      9.6597      10.424      11.248      12.103      12.924    
  13.656      14.267      14.748      15.102      15.346      15.496      15.567      15.567      15.496      15.346    
  15.102      14.748      14.267      13.656      12.924      12.103      11.248      10.424      9.6597      8.9631    
  8.3375      7.7843      7.3034      6.8929      6.5497      6.2688      6.0448      5.8719      5.7457      5.6630    
  5.6220      5.6220      5.6630      5.7457      5.8719      6.0448      6.2688      6.5497      6.8929      7.3034    
  7.2525      7.8694      8.5635      9.3319      10.169      11.063      11.976      12.843      13.617      14.267    
  14.784      15.169      15.432      15.584      15.634      15.584      15.432      15.169      14.784      14.267    
  13.617      12.843      11.976      11.063      10.169      9.3319      8.5635      7.8694      7.2525      6.7132    
  6.2500      5.8596      5.5370      5.2763      5.0712      4.9165      4.8082      4.7440      4.7227      4.7440    
  4.8082      4.9165      5.0712      5.2763      5.5370      5.8596      6.2500      6.7132      6.8540      7.5298    
  8.2862      9.1186      10.019      10.972      11.933      12.843      13.656      14.342      14.889      15.293    
  15.557      15.688      15.688      15.557      15.293      14.889      14.342      13.656      12.843      11.933    
  10.972      10.019      9.1186      8.2862      7.5298      6.8540      6.2603      5.7477      5.3130      4.9512    
  4.6560      4.4205      4.2387      4.1058      4.0186      3.9754      3.9754      4.0186      4.1058      4.2387    
  4.4205      4.6560      4.9512      5.3130      5.7477      6.2603      6.5787      7.3097      8.1236      9.0139    
  9.9694      10.972      11.976      12.924      13.771      14.485      15.048      15.453      15.695      15.776    
  15.695      15.453      15.048      14.485      13.771      12.924      11.976      10.972      9.9694      9.0139    
  8.1236      7.3097      6.5787      5.9335      5.3737      4.8965      4.4969      4.1684      3.9036      3.6958    
  3.5392      3.4297      3.3648      3.3433      3.3648      3.4297      3.5392      3.6958      3.9036      4.1684    
  4.4969      4.8965      5.3737      5.9335      6.4177      7.2017      8.0700      9.0139      10.019      11.063    
  12.103      13.082      13.953      14.681      15.243      15.623      15.815      15.815      15.623      15.243    
  14.681      13.953      13.082      12.103      11.063      10.019      9.0139      8.0700      7.2017      6.4177    
  5.7224      5.1164      4.5975      4.1606      3.7991      3.5053      3.2718      3.0920      2.9609      2.8750    
  2.8325      2.8325      2.8750      2.9609      3.0920      3.2718      3.5053      3.7991      4.1606      4.5975    
  5.1164      5.7224      6.3648      7.2017      8.1236      9.1186      10.169      11.248      12.315      13.314    
  14.193      14.914      15.448      15.775      15.886      15.775      15.448      14.914      14.193      13.314    
  12.315      11.248      10.169      9.1186      8.1236      7.2017      6.3648      5.6191      4.9664      4.4050    
  3.9302      3.5350      3.2118      2.9523      2.7493      2.5968      2.4906      2.4279      2.4071      2.4279    
  2.4906      2.5968      2.7493      2.9523      3.2118      3.5350      3.9302      4.4050      4.9664      5.6191    
  6.4177      7.3097      8.2862      9.3319      10.424      11.531      12.612      13.613      14.480      15.168    
  15.645      15.889      15.889      15.645      15.168      14.480      13.613      12.612      11.531      10.424    
  9.3319      8.2862      7.3097      6.4177      5.6191      4.9171      4.3109      3.7960      3.3655      3.0111    
  2.7244      2.4974      2.3234      2.1970      2.1147      2.0740      2.0740      2.1147      2.1970      2.3234    
  2.4974      2.7244      3.0111      3.3655      3.7960      4.3109      4.9171      5.6191      6.5787      7.5298    
  8.5635      9.6597      10.790      11.918      12.999      13.980      14.808      15.433      15.823      15.955    
  15.823      15.433      14.808      13.980      12.999      11.918      10.790      9.6597      8.5635      7.5298    
  6.5787      5.7224      4.9664      4.3109      3.7520      3.2827      2.8944      2.5783      2.3256      2.1288    
  1.9818      1.8799      1.8200      1.8002      1.8200      1.8799      1.9818      2.1288      2.3256      2.5783    
  2.8944      3.2827      3.7520      4.3109      4.9664      5.7224      6.8540      7.8694      8.9631      10.110    
  11.275      12.415      13.481      14.421      15.181      15.716      15.992      15.992      15.716      15.181    
  14.421      13.481      12.415      11.275      10.110      8.9631      7.8694      6.8540      5.9335      5.1164    
  4.4050      3.7960      3.2827      2.8562      2.5069      2.2256      2.0040      1.8349      1.7130      1.6339    
  1.5951      1.5951      1.6339      1.7130      1.8349      2.0040      2.2256      2.5069      2.8562      3.2827    
  3.7960      4.4050      5.1164      5.9335      7.2525      8.3375      9.4933      10.688      11.882      13.025    
  14.065      14.946      15.617      16.038      16.182      16.038      15.617      14.946      14.065      13.025    
  11.882      10.688      9.4933      8.3375      7.2525      6.2603      5.3737      4.5975      3.9302      3.3655    
  2.8944      2.5069      2.1929      1.9430      1.7495      1.6059      1.5070      1.4492      1.4301      1.4492    
  1.5070      1.6059      1.7495      1.9430      2.1929      2.5069      2.8944      3.3655      3.9302      4.5975    
  5.3737      6.2603      7.7843      8.9431      10.162      11.402      12.616      13.751      14.749      15.557    
  16.125      16.419      16.419      16.125      15.557      14.749      13.751      12.616      11.402      10.162    
  8.9431      7.7843      6.7132      5.7477      4.8965      4.1606      3.5350      3.0111      2.5783      2.2256    
  1.9430      1.7215      1.5536      1.4332      1.3556      1.3177      1.3177      1.3556      1.4332      1.5536    
  1.7215      1.9430      2.2256      2.5783      3.0111      3.5350      4.1606      4.8965      5.7477      6.7132    
  8.4596      9.6948      10.974      12.254      13.479      14.593      15.537      16.256      16.706      16.860    
  16.706      16.256      15.537      14.593      13.479      12.254      10.974      9.6948      8.4596      7.3034    
  6.2500      5.3130      4.4969      3.7991      3.2118      2.7244      2.3256      2.0040      1.7495      1.5536    
  1.4090      1.3100      1.2523      1.2333      1.2523      1.3100      1.4090      1.5536      1.7495      2.0040    
  2.3256      2.7244      3.2118      3.7991      4.4969      5.3130      6.2500      7.3034      9.2884      10.601    
  11.939      13.250      14.477      15.557      16.430      17.045      17.363      17.363      17.045      16.430    
  15.557      14.477      13.250      11.939      10.601      9.2884      8.0423      6.8929      5.8596      4.9512    
  4.1684      3.5053      2.9523      2.4974      2.1288      1.8349      1.6059      1.4332      1.3100      1.2308    
  1.1922      1.1922      1.2308      1.3100      1.4332      1.6059      1.8349      2.1288      2.4974      2.9523    
  3.5053      4.1684      4.9512      5.8596      6.8929      8.0423      10.282      11.672      13.064      14.401    
  15.617      16.649      17.436      17.929      18.098      17.929      17.436      16.649      15.617      14.401    
  13.064      11.672      10.282      8.9418      7.6893      6.5497      5.5370      4.6560      3.9036      3.2718    
  2.7493      2.3234      1.9818      1.7130      1.5070      1.3556      1.2523      1.1922      1.1725      1.1922    
  1.2523      1.3556      1.5070      1.7130      1.9818      2.3234      2.7493      3.2718      3.9036      4.6560    
  5.5370      6.5497      7.6893      8.9418      11.453      12.921      14.364      15.716      16.903      17.856    
  18.522      18.865      18.865      18.522      17.856      16.903      15.716      14.364      12.921      11.453    
  10.016      8.6532      7.3976      6.2688      5.2763      4.4205      3.6958      3.0920      2.5968      2.1970    
  1.8799      1.6339      1.4492      1.3177      1.2333      1.1922      1.1922      1.2333      1.3177      1.4492    
  1.6339      1.8799      2.1970      2.5968      3.0920      3.6958      4.4205      5.2763      6.2688      7.3976    
  8.6532      10.016      12.820      14.361      15.823      17.128      18.209      19.015      19.511      19.679    
  19.511      19.015      18.209      17.128      15.823      14.361      12.820      11.281      9.8010      8.4192    
  7.1623      6.0448      5.0712      4.2387      3.5392      2.9609      2.4906      2.1147      1.8200      1.5951    
  1.4301      1.3177      1.2523      1.2308      1.2523      1.3177      1.4301      1.5951      1.8200      2.1147    
  2.4906      2.9609      3.5392      4.2387      5.0712      6.0448      7.1623      8.4192      9.8010      11.281    
  14.360      15.889      17.258      18.406      19.291      19.888      20.187      20.187      19.888      19.291    
  18.406      17.258      15.889      14.360      12.752      11.152      9.6329      8.2349      6.9782      5.8719    
  4.9165      4.1058      3.4297      2.8750      2.4279      2.0740      1.8002      1.5951      1.4492      1.3556    
  1.3100      1.3100      1.3556      1.4492      1.5951      1.8002      2.0740      2.4279      2.8750      3.4297    
  4.1058      4.9165      5.8719      6.9782      8.2349      9.6329      11.152      12.752      15.886      17.259    
  18.401      19.281      19.895      20.254      20.371      20.254      19.895      19.281      18.401      17.259    
  15.886      14.339      12.699      11.058      9.5059      8.0948      6.8400      5.7457      4.8082      4.0186    
  3.3648      2.8325      2.4071      2.0740      1.8200      1.6339      1.5070      1.4332      1.4090      1.4332    
  1.5070      1.6339      1.8200      2.0740      2.4071      2.8325      3.3648      4.0186      4.8082      5.7457    
  6.8400      8.0948      9.5059      11.058      12.699      14.339      17.135      18.196      18.979      19.504    
  19.814      19.954      19.954      19.814      19.504      18.979      18.196      17.135      15.815      14.290    
  12.648      10.989      9.4138      7.9939      6.7438      5.6630      4.7440      3.9754      3.3433      2.8325    
  2.4279      2.1147      1.8799      1.7130      1.6059      1.5536      1.5536      1.6059      1.7130      1.8799    
  2.1147      2.4279      2.8325      3.3433      3.9754      4.7440      5.6630      6.7438      7.9939      9.4138    
  10.989      12.648      14.290      15.815      17.835      18.434      18.759      18.890      18.920      18.921    
  18.920      18.890      18.759      18.434      17.835      16.919      15.695      14.223      12.599      10.937    
  9.3515      7.9284      6.6869      5.6220      4.7227      3.9754      3.3648      2.8750      2.4906      2.1970    
  1.9818      1.8349      1.7495      1.7215      1.7495      1.8349      1.9818      2.1970      2.4906      2.8750    
  3.3648      3.9754      4.7227      5.6220      6.6869      7.9284      9.3515      10.937      12.599      14.223    
  15.695      16.919      17.737      17.762      17.586      17.354      17.200      17.200      17.354      17.586    
  17.762      17.737      17.390      16.661      15.557      14.151      12.556      10.902      9.3153      7.8961    
  6.6681      5.6220      4.7440      4.0186      3.4297      2.9609      2.5968      2.3234      2.1288      2.0040    
  1.9430      1.9430      2.0040      2.1288      2.3234      2.5968      2.9609      3.4297      4.0186      4.7440    
  5.6220      6.6681      7.8961      9.3153      10.902      12.556      14.151      15.557      16.661      17.390    
  16.656      16.065      15.426      14.941      14.761      14.941      15.426      16.065      16.656      16.998    
  16.940      16.412      15.432      14.093      12.527      10.884      9.3034      7.8961      6.6869      5.6630    
  4.8082      4.1058      3.5392      3.0920      2.7493      2.4974      2.3256      2.2256      2.1929      2.2256    
  2.3256      2.4974      2.7493      3.0920      3.5392      4.1058      4.8082      5.6630      6.6869      7.8961    
  9.3034      10.884      12.527      14.093      15.432      16.412      16.940      16.998      14.523      13.362    
  12.386      11.831      11.831      12.386      13.362      14.523      15.595      16.330      16.559      16.218    
  15.346      14.060      12.517      10.884      9.3153      7.9284      6.7438      5.7457      4.9165      4.2387    
  3.6958      3.2718      2.9523      2.7244      2.5783      2.5069      2.5069      2.5783      2.7244      2.9523    
  3.2718      3.6958      4.2387      4.9165      5.7457      6.7438      7.9284      9.3153      10.884      12.517    
  14.060      15.346      16.218      16.559      16.330      15.595      11.415      9.8308      8.7254      8.3291    
  8.7254      9.8308      11.415      13.158      14.722      15.828      16.306      16.113      15.315      14.060    
  12.527      10.902      9.3515      7.9939      6.8400      5.8719      5.0712      4.4205      3.9036      3.5053    
  3.2118      3.0111      2.8944      2.8562      2.8944      3.0111      3.2118      3.5053      3.9036      4.4205    
  5.0712      5.8719      6.8400      7.9939      9.3515      10.902      12.527      14.060      15.315      16.113    
  16.306      15.828      14.722      13.158      7.5807      5.8037      4.8226      4.8226      5.8037      7.5807    
  9.8256      12.142      14.149      15.559      16.218      16.113      15.346      14.093      12.556      10.937    
  9.4138      8.0948      6.9782      6.0448      5.2763      4.6560      4.1684      3.7991      3.5350      3.3655    
  3.2827      3.2827      3.3655      3.5350      3.7991      4.1684      4.6560      5.2763      6.0448      6.9782    
  8.0948      9.4138      10.937      12.556      14.093      15.346      16.113      16.218      15.559      14.149    
  12.142      9.8256      3.4176      1.7272      1.1288      1.7272      3.4176      5.9094      8.7876      11.601    
  13.950      15.559      16.306      16.218      15.432      14.151      12.599      10.989      9.5059      8.2349    
  7.1623      6.2688      5.5370      4.9512      4.4969      4.1606      3.9302      3.7960      3.7520      3.7960    
  3.9302      4.1606      4.4969      4.9512      5.5370      6.2688      7.1623      8.2349      9.5059      10.989    
  12.599      14.151      15.432      16.218      16.306      15.559      13.950      11.601      8.7876      5.9094    
 -.57828     -1.9037     -1.9037     -.57828      1.8581      5.0198      8.4271      11.601      14.149      15.828    
  16.559      16.412      15.557      14.223      12.648      11.058      9.6329      8.4192      7.3976      6.5497    
  5.8596      5.3130      4.8965      4.5975      4.4050      4.3109      4.3109      4.4050      4.5975      4.8965    
  5.3130      5.8596      6.5497      7.3976      8.4192      9.6329      11.058      12.648      14.223      15.557    
  16.412      16.559      15.828      14.149      11.601      8.4271      5.0198      1.8581     -3.8932     -4.6257    
 -3.8932     -1.8076      1.3162      5.0198      8.7876      12.142      14.722      16.330      16.940      16.661    
  15.695      14.290      12.699      11.152      9.8010      8.6532      7.6893      6.8929      6.2500      5.7477    
  5.3737      5.1164      4.9664      4.9171      4.9664      5.1164      5.3737      5.7477      6.2500      6.8929    
  7.6893      8.6532      9.8010      11.152      12.699      14.290      15.695      16.661      16.940      16.330    
  14.722      12.142      8.7876      5.0198      1.3162     -1.8076     -6.0829     -6.0829     -4.5859     -1.8076    
  1.8581      5.9094      9.8256      13.158      15.595      16.998      17.390      16.919      15.815      14.339    
  12.752      11.281      10.016      8.9418      8.0423      7.3034      6.7132      6.2603      5.9335      5.7224    
  5.6191      5.6191      5.7224      5.9335      6.2603      6.7132      7.3034      8.0423      8.9418      10.016    
  11.281      12.752      14.339      15.815      16.919      17.390      16.998      15.595      13.158      9.8256    
  5.9094      1.8581     -1.8076     -4.5859     -6.0829     -4.6257     -1.9037      1.7272      5.8037      9.8308    
  13.362      16.065      17.762      18.434      18.196      17.259      15.889      14.361      12.921      11.672    
  10.601      9.6948      8.9431      8.3375      7.8694      7.5298      7.3097      7.2017      7.2017      7.3097    
  7.5298      7.8694      8.3375      8.9431      9.6948      10.601      11.672      12.921      14.361      15.889    
  17.259      18.196      18.434      17.762      16.065      13.362      9.8308      5.8037      1.7272     -1.9037    
 -4.6257     -6.0829     -4.6257     -2.5834     0.53215      4.3313      8.3523      12.134      15.285      17.542    
  18.790      19.064      18.518      17.390      15.955      14.487      13.175      12.040      11.067      10.247    
  9.5725      9.0373      8.6338      8.3538      8.1896      8.1356      8.1896      8.3538      8.6338      9.0373    
  9.5725      10.247      11.067      12.040      13.175      14.487      15.955      17.390      18.518      19.064    
  18.790      17.542      15.285      12.134      8.3523      4.3313     0.53215     -2.5834     -4.6257     -5.3366    
 -1.9037     0.53215      3.8088      7.5308      11.263      14.598      17.213      18.916      19.655      19.514    
  18.683      17.417      15.992      14.653      13.481      12.466      11.599      10.872      10.282      9.8227    
  9.4881      9.2706      9.1636      9.1636      9.2706      9.4881      9.8227      10.282      10.872      11.599    
  12.466      13.481      14.653      15.992      17.417      18.683      19.514      19.655      18.916      17.213    
  14.598      11.263      7.5308      3.8088     0.53215     -1.9037     -3.2012     -3.2012      1.7272      4.3313    