unknown system                          
   1.00000000000000     
     0.000000    2.816500    2.816500
     2.816500    0.000000    2.816500
     2.816500    2.816500    0.000000
   Ge
     2
Direct
  0.000000  0.000000  0.000000
  0.250000  0.250000  0.250000
 
   48   48   48
 -.70066705397E+01 -.62503434760E+01 -.40811063352E+01 -.78402149718E+00 0.32127258008E+01
 0.74050222430E+01 0.11295336471E+02 0.14473309442E+02 0.16674729701E+02 0.17805472812E+02
 0.17929445473E+02 0.17231033085E+02 0.15966967186E+02 0.14419504308E+02 0.12856725985E+02
 0.11471448603E+02 0.10286698675E+02 0.92848222577E+01 0.84504240547E+01 0.77711166259E+01
 0.72362156151E+01 0.68354232833E+01 0.65586107041E+01 0.63967752830E+01 0.63435922860E+01
 0.63967753026E+01 0.65586107065E+01 0.68354232527E+01 0.72362155802E+01 0.77711166163E+01
 0.84504240669E+01 0.92848222787E+01 0.10286698710E+02 0.11471448646E+02 0.12856725995E+02
 0.14419504247E+02 0.15966967081E+02 0.17231033015E+02 0.17929445479E+02 0.17805472859E+02
 0.16674729737E+02 0.14473309460E+02 0.11295336497E+02 0.74050222846E+01 0.32127258320E+01
 -.78402149681E+00 -.40811063562E+01 -.62503434943E+01 -.62503434760E+01 -.48083677140E+01
 -.21062948925E+01 0.15160159756E+01 0.56087754669E+01 0.96809385673E+01 0.13278397287E+02
 0.16054160760E+02 0.17813400008E+02 0.18524647724E+02 0.18300098094E+02 0.17356069809E+02
 0.15965981317E+02 0.14414620693E+02 0.12953873766E+02 0.11688251641E+02 0.10606310242E+02
 0.96930369758E+01 0.89365533834E+01 0.83273448261E+01 0.78565566892E+01 0.75150469364E+01
 0.72937899237E+01 0.71853023944E+01 0.71853023565E+01 0.72937898789E+01 0.75150469672E+01
 0.78565567412E+01 0.83273448021E+01 0.89365533203E+01 0.96930369894E+01 0.10606310329E+02
 0.11688251684E+02 0.12953873728E+02 0.14414620667E+02 0.15965981346E+02 0.17356069813E+02
 0.18300098039E+02 0.18524647712E+02 0.17813400074E+02 0.16054160698E+02 0.13278396891E+02
 0.96809380115E+01 0.56087752600E+01 0.15160164622E+01 -.21062938952E+01 -.48083667649E+01
 -.62503430938E+01 -.40811063352E+01 -.21062948925E+01 0.91642749526E+00 0.46191181823E+01
 0.85576548809E+01 0.12278673187E+02 0.15390081635E+02 0.17618672746E+02 0.18841539908E+02
 0.19087006788E+02 0.18510056235E+02 0.17352032549E+02 0.15894144351E+02 0.14411821577E+02
 0.13093122747E+02 0.11954260165E+02 0.10981310305E+02 0.10162972355E+02 0.94908289096E+01
 0.89576583681E+01 0.85558771181E+01 0.82772513337E+01 0.81139380315E+01 0.80602035444E+01
 0.81139380263E+01 0.82772513387E+01 0.85558771387E+01 0.89576583929E+01 0.94908289311E+01
 0.10162972372E+02 0.10981310308E+02 0.11954260140E+02 0.13093122713E+02 0.14411821574E+02
 0.15894144384E+02 0.17352032573E+02 0.18510056233E+02 0.19087006824E+02 0.18841540023E+02
 0.17618672811E+02 0.15390081402E+02 0.12278672598E+02 0.85576542796E+01 0.46191181285E+01
 0.91642826527E+00 -.21062936430E+01 -.40811053899E+01 -.47672127318E+01 -.78402149718E+00
 0.15160159756E+01 0.46191181823E+01 0.81554677316E+01 0.11710956852E+02 0.14889259816E+02
 0.17372167023E+02 0.18964174824E+02 0.19612128309E+02 0.19398578679E+02 0.18513925912E+02
 0.17215127403E+02 0.15778768874E+02 0.14442745526E+02 0.13276981771E+02 0.12270274782E+02
 0.11412119140E+02 0.10695037478E+02 0.10113343426E+02 0.96612540236E+01 0.93319316117E+01
 0.91179618853E+01 0.90128742333E+01 0.90128742726E+01 0.91179619304E+01 0.93319315764E+01
 0.96612539740E+01 0.10113343483E+02 0.10695037610E+02 0.11412119192E+02 0.12270274702E+02
 0.13276981674E+02 0.14442745506E+02 0.15778768885E+02 0.17215127374E+02 0.18513925877E+02
 0.19398578710E+02 0.19612128398E+02 0.18964174904E+02 0.17372167048E+02 0.14889259753E+02
 0.11710956661E+02 0.81554674844E+01 0.46191181238E+01 0.15160162955E+01 -.78402097838E+00
 -.20066267364E+01 -.20066269931E+01 0.32127258008E+01 0.56087754669E+01 0.85576548809E+01
 0.11710956852E+02 0.14703713158E+02 0.17209107158E+02 0.18987675610E+02 0.19920089330E+02
 0.20017406387E+02 0.19408593596E+02 0.18309467165E+02 0.16979573880E+02 0.15672299753E+02
 0.14515235338E+02 0.13506428908E+02 0.12636518783E+02 0.11898821469E+02 0.11288872398E+02
 0.10802568729E+02 0.10434724517E+02 0.10178946656E+02 0.10028759207E+02 0.99792991538E+01
 0.10028759191E+02 0.10178946607E+02 0.10434724454E+02 0.10802568722E+02 0.11288872491E+02
 0.11898821618E+02 0.12636518886E+02 0.13506428899E+02 0.14515235240E+02 0.15672299644E+02
 0.16979573821E+02 0.18309467153E+02 0.19408593575E+02 0.20017406314E+02 0.19920089238E+02
 0.18987675598E+02 0.17209107293E+02 0.14703713383E+02 0.11710957016E+02 0.85576548759E+01
 0.56087753166E+01 0.32127256191E+01 0.16527080019E+01 0.11116894299E+01 0.16527081141E+01
 0.74050222430E+01 0.96809385673E+01 0.12278673187E+02 0.14889259816E+02 0.17209107158E+02
 0.18986204883E+02 0.20058849993E+02 0.20378523998E+02 0.20012392060E+02 0.19125264786E+02
 0.17944682911E+02 0.16715761013E+02 0.15606298209E+02 0.14630922892E+02 0.13781798897E+02
 0.13052960484E+02 0.12440747793E+02 0.11942305841E+02 0.11553943218E+02 0.11270458950E+02
 0.11085471179E+02 0.10994140491E+02 0.10994140438E+02 0.11085471071E+02 0.11270458867E+02
 0.11553943171E+02 0.11942305830E+02 0.12440747878E+02 0.13052960697E+02 0.13781799115E+02
 0.14630922930E+02 0.15606298052E+02 0.16715760847E+02 0.17944682883E+02 0.19125264826E+02
 0.20012392020E+02 0.20378523853E+02 0.20058849837E+02 0.18986204776E+02 0.17209107105E+02
 0.14889259854E+02 0.12278673374E+02 0.96809388569E+01 0.74050224892E+01 0.57213353291E+01
 0.48276283132E+01 0.48276282906E+01 0.57213352149E+01 0.11295336471E+02 0.13278397287E+02
 0.15390081635E+02 0.17372167023E+02 0.18987675610E+02 0.20058849993E+02 0.20496761641E+02
 0.20315588897E+02 0.19627642682E+02 0.18619260899E+02 0.17512062678E+02 0.16489283708E+02
 0.15584061342E+02 0.14790372528E+02 0.14102970710E+02 0.13518594859E+02 0.13035015899E+02
 0.12648094733E+02 0.12350436996E+02 0.12138403326E+02 0.12011123950E+02 0.11968662932E+02
 0.12011123925E+02 0.12138403246E+02 0.12350436854E+02 0.12648094592E+02 0.13035015872E+02
 0.13518595016E+02 0.14102970979E+02 0.14790372739E+02 0.15584061366E+02 0.16489283575E+02
 0.17512062536E+02 0.18619260869E+02 0.19627642770E+02 0.20315589008E+02 0.20496761651E+02
 0.20058849804E+02 0.18987675217E+02 0.17372166572E+02 0.15390081396E+02 0.13278397500E+02
 0.11295337146E+02 0.96822056962E+01 0.86319295128E+01 0.82677621045E+01 0.86319289279E+01
 0.96822048468E+01 0.14473309442E+02 0.16054160760E+02 0.17618672746E+02 0.18964174824E+02
 0.19920089330E+02 0.20378523998E+02 0.20315588897E+02 0.19797156185E+02 0.18965949025E+02
 0.18011493247E+02 0.17111156143E+02 0.16310770674E+02 0.15606298209E+02 0.14993260601E+02
 0.14468489640E+02 0.14028260143E+02 0.13661283552E+02 0.13361341120E+02 0.13129874199E+02
 0.12971568593E+02 0.12891062097E+02 0.12891062142E+02 0.12971568630E+02 0.13129874076E+02
 0.13361340860E+02 0.13661283349E+02 0.14028260151E+02 0.14468489839E+02 0.14993260861E+02
 0.15606298400E+02 0.16310770710E+02 0.17111156018E+02 0.18011493069E+02 0.18965948966E+02
 0.19797156330E+02 0.20315589146E+02 0.20378524149E+02 0.19920089233E+02 0.18964174465E+02
 0.17618672255E+02 0.16054160408E+02 0.14473309533E+02 0.13078390587E+02 0.12043207850E+02
 0.11493051369E+02 0.11493051022E+02 0.12043207091E+02 0.13078389984E+02 0.16674729701E+02
 0.17813400008E+02 0.18841539908E+02 0.19612128309E+02 0.20017406387E+02 0.20012392060E+02
 0.19627642682E+02 0.18965949025E+02 0.18181668266E+02 0.17432577090E+02 0.16766350973E+02
 0.16180810598E+02 0.15672299753E+02 0.15237513734E+02 0.14865702485E+02 0.14538815107E+02
 0.14252232528E+02 0.14012108779E+02 0.13829352303E+02 0.13714702980E+02 0.13675610637E+02
 0.13714703053E+02 0.13829352310E+02 0.14012108605E+02 0.14252232227E+02 0.14538814874E+02
 0.14865702485E+02 0.15237513970E+02 0.15672300072E+02 0.16180810812E+02 0.16766350980E+02
 0.17432576918E+02 0.18181668029E+02 0.18965948861E+02 0.19627642698E+02 0.20012392290E+02
 0.20017406747E+02 0.19612128592E+02 0.18841539898E+02 0.17813399668E+02 0.16674729248E+02
 0.15584539905E+02 0.14689063146E+02 0.14103310346E+02 0.13899831149E+02 0.14103310222E+02
 0.14689063128E+02 0.15584540173E+02 0.17805472812E+02 0.18524647724E+02 0.19087006788E+02
 0.19398578679E+02 0.19408593596E+02 0.19125264786E+02 0.18619260899E+02 0.18011493247E+02
 0.17432577090E+02 0.16921597353E+02 0.16477716811E+02 0.16098122422E+02 0.15778768874E+02
 0.15499463245E+02 0.15235907364E+02 0.14982794345E+02 0.14749502394E+02 0.14552767525E+02
 0.14410070446E+02 0.14335060398E+02 0.14335060463E+02 0.14410070574E+02 0.14552767552E+02
 0.14749502193E+02 0.14982793976E+02 0.15235907072E+02 0.15499463260E+02 0.15778769193E+02
 0.16098122816E+02 0.16477717047E+02 0.16921597362E+02 0.17432576928E+02 0.18011492985E+02
 0.18619260613E+02 0.19125264609E+02 0.19408593675E+02 0.19398579030E+02 0.19087007238E+02
 0.18524648013E+02 0.17805472768E+02 0.17044760006E+02 0.16357442758E+02 0.15841088002E+02
 0.15565064216E+02 0.15565064398E+02 0.15841088465E+02 0.16357443294E+02 0.17044760376E+02
 0.17929445473E+02 0.18300098094E+02 0.18510056235E+02 0.18513925912E+02 0.18309467165E+02
 0.17944682911E+02 0.17512062678E+02 0.17111156143E+02 0.16766350973E+02 0.16477716811E+02
 0.16243252339E+02 0.16058170321E+02 0.15894144351E+02 0.15718992808E+02 0.15523607707E+02
 0.15318003232E+02 0.15123202765E+02 0.14963045979E+02 0.14857993227E+02 0.14821436469E+02
 0.14857993454E+02 0.14963046235E+02 0.15123202801E+02 0.15318002945E+02 0.15523607247E+02
 0.15718992483E+02 0.15894144380E+02 0.16058170665E+02 0.16243252763E+02 0.16477717097E+02
 0.16766351068E+02 0.17111156102E+02 0.17512062531E+02 0.17944682635E+02 0.18309466793E+02
 0.18513925618E+02 0.18510056238E+02 0.18300098456E+02 0.17929445983E+02 0.17471136679E+02
 0.17007825699E+02 0.16616172384E+02 0.16356143423E+02 0.16265238992E+02 0.16356143808E+02
 0.16616172829E+02 0.17007825831E+02 0.17471136380E+02 0.17231033085E+02 0.17356069809E+02
 0.17352032549E+02 0.17215127403E+02 0.16979573880E+02 0.16715761013E+02 0.16489283708E+02
 0.16310770674E+02 0.16180810598E+02 0.16098122422E+02 0.16058170321E+02 0.16028124465E+02
 0.15965981317E+02 0.15855267225E+02 0.15703100105E+02 0.15532100219E+02 0.15370982404E+02
 0.15246694675E+02 0.15179289846E+02 0.15179290017E+02 0.15246695068E+02 0.15370982740E+02
 0.15532100236E+02 0.15703099748E+02 0.15855266694E+02 0.15965980941E+02 0.16028124464E+02
 0.16058170646E+02 0.16098122828E+02 0.16180810876E+02 0.16310770807E+02 0.16489283794E+02
 0.16715761069E+02 0.16979573782E+02 0.17215127053E+02 0.17352032066E+02 0.17356069485E+02
 0.17231033133E+02 0.17010755799E+02 0.16745964049E+02 0.16490813430E+02 0.16292433685E+02
 0.16184562078E+02 0.16184562096E+02 0.16292433659E+02 0.16490813218E+02 0.16745963655E+02
 0.17010755444E+02 0.15966967186E+02 0.15965981317E+02 0.15894144351E+02 0.15778768874E+02
 0.15672299753E+02 0.15606298209E+02 0.15584061342E+02 0.15606298209E+02 0.15672299753E+02
 0.15778768874E+02 0.15894144351E+02 0.15965981317E+02 0.15966967186E+02 0.15897192918E+02
 0.15777152178E+02 0.15637807733E+02 0.15511252264E+02 0.15423958794E+02 0.15392923334E+02
 0.15423959123E+02 0.15511252750E+02 0.15637808101E+02 0.15777152182E+02 0.15897192520E+02
 0.15966966615E+02 0.15965980926E+02 0.15894144347E+02 0.15778769159E+02 0.15672300043E+02
 0.15606298319E+02 0.15584061346E+02 0.15606298319E+02 0.15672300043E+02 0.15778769159E+02
 0.15894144347E+02 0.15965980926E+02 0.15966966615E+02 0.15897192520E+02 0.15777152182E+02
 0.15637808101E+02 0.15511252750E+02 0.15423959123E+02 0.15392923334E+02 0.15423958794E+02
 0.15511252264E+02 0.15637807733E+02 0.15777152178E+02 0.15897192918E+02 0.14419504308E+02
 0.14414620693E+02 0.14411821577E+02 0.14442745526E+02 0.14515235338E+02 0.14630922892E+02
 0.14790372528E+02 0.14993260601E+02 0.15237513734E+02 0.15499463245E+02 0.15718992808E+02
 0.15855267225E+02 0.15897192918E+02 0.15858695891E+02 0.15769277855E+02 0.15663727687E+02
 0.15573771493E+02 0.15522713660E+02 0.15522713808E+02 0.15573771887E+02 0.15663728166E+02
 0.15769278190E+02 0.15858695883E+02 0.15897192544E+02 0.15855266702E+02 0.15718992465E+02
 0.15499463262E+02 0.15237513989E+02 0.14993260789E+02 0.14790372469E+02 0.14630922708E+02
 0.14515235324E+02 0.14442745837E+02 0.14411822056E+02 0.14414620997E+02 0.14419504202E+02
 0.14401724005E+02 0.14355654354E+02 0.14289691660E+02 0.14219428027E+02 0.14161448364E+02
 0.14128894983E+02 0.14128894844E+02 0.14161448082E+02 0.14219427890E+02 0.14289691866E+02
 0.14355654833E+02 0.14401724452E+02 0.12856725985E+02 0.12953873766E+02 0.13093122747E+02
 0.13276981771E+02 0.13506428908E+02 0.13781798897E+02 0.14102970710E+02 0.14468489640E+02
 0.14865702485E+02 0.15235907364E+02 0.15523607707E+02 0.15703100105E+02 0.15777152178E+02
 0.15769277855E+02 0.15713404467E+02 0.15644284637E+02 0.15590523206E+02 0.15570504200E+02
 0.15590523357E+02 0.15644284939E+02 0.15713404852E+02 0.15769278152E+02 0.15777152192E+02
 0.15703099788E+02 0.15523607250E+02 0.15235907085E+02 0.14865702574E+02 0.14468489982E+02
 0.14102970972E+02 0.13781798818E+02 0.13506428531E+02 0.13276981409E+02 0.13093122719E+02
 0.12953874131E+02 0.12856726504E+02 0.12792849355E+02 0.12742381413E+02 0.12694237894E+02
 0.12647466637E+02 0.12606907718E+02 0.12579098515E+02 0.12569189169E+02 0.12579098599E+02
 0.12606907940E+02 0.12647466984E+02 0.12694238199E+02 0.12742381444E+02 0.12792849023E+02
 0.11471448603E+02 0.11688251641E+02 0.11954260165E+02 0.12270274782E+02 0.12636518783E+02
 0.13052960484E+02 0.13518594859E+02 0.14028260143E+02 0.14538815107E+02 0.14982794345E+02
 0.15318003232E+02 0.15532100219E+02 0.15637807733E+02 0.15663727687E+02 0.15644284637E+02
 0.15611357228E+02 0.15588655221E+02 0.15588655212E+02 0.15611357267E+02 0.15644284832E+02
 0.15663728013E+02 0.15637808002E+02 0.15532100226E+02 0.15318002941E+02 0.14982793941E+02
 0.14538814879E+02 0.14028260276E+02 0.13518595278E+02 0.13052960877E+02 0.12636518825E+02
 0.12270274400E+02 0.11954259621E+02 0.11688251317E+02 0.11471448703E+02 0.11301613620E+02
 0.11174415262E+02 0.11082938964E+02 0.11016229911E+02 0.10967119759E+02 0.10933683416E+02
 0.10916513306E+02 0.10916513415E+02 0.10933683681E+02 0.10967120017E+02 0.11016229981E+02
 0.11082938743E+02 0.11174414819E+02 0.11301613202E+02 0.10286698675E+02 0.10606310242E+02
 0.10981310305E+02 0.11412119140E+02 0.11898821469E+02 0.12440747793E+02 0.13035015899E+02
 0.13661283552E+02 0.14252232528E+02 0.14749502394E+02 0.15123202765E+02 0.15370982404E+02
 0.15511252264E+02 0.15573771493E+02 0.15590523206E+02 0.15588655221E+02 0.15585977690E+02
 0.15588655156E+02 0.15590523201E+02 0.15573771652E+02 0.15511252544E+02 0.15370982632E+02
 0.15123202770E+02 0.14749502135E+02 0.14252232133E+02 0.13661283248E+02 0.13035015890E+02
 0.12440748122E+02 0.11898821963E+02 0.11412119501E+02 0.10981310304E+02 0.10606309879E+02
 0.10286698182E+02 0.10021281106E+02 0.98073928085E+01 0.96405881308E+01 0.95150603837E+01
 0.94246454677E+01 0.93639321657E+01 0.93289439028E+01 0.93174768520E+01 0.93289439672E+01
 0.93639321673E+01 0.94246452911E+01 0.95150600653E+01 0.96405878653E+01 0.98073928100E+01
 0.10021281435E+02 0.92848222577E+01 0.96930369758E+01 0.10162972355E+02 0.10695037478E+02
 0.11288872398E+02 0.11942305841E+02 0.12648094733E+02 0.13361341120E+02 0.14012108779E+02
 0.14552767525E+02 0.14963045979E+02 0.15246694675E+02 0.15423958794E+02 0.15522713660E+02
 0.15570504200E+02 0.15588655212E+02 0.15588655156E+02 0.15570504096E+02 0.15522713640E+02
 0.15423958941E+02 0.15246694938E+02 0.14963046201E+02 0.14552767556E+02 0.14012108572E+02
 0.13361340749E+02 0.12648094350E+02 0.11942305628E+02 0.11288872503E+02 0.10695037909E+02
 0.10162972914E+02 0.96930373393E+01 0.92848222052E+01 0.89372753705E+01 0.86482806873E+01
 0.84142797137E+01 0.82303917600E+01 0.80911092595E+01 0.79912651787E+01 0.79268225623E+01
 0.78952017908E+01 0.78952017474E+01 0.79268224242E+01 0.79912649579E+01 0.80911090493E+01
 0.82303917270E+01 0.84142799751E+01 0.86482811631E+01 0.89372757790E+01 0.84504240547E+01
 0.89365533834E+01 0.94908289096E+01 0.10113343426E+02 0.10802568729E+02 0.11553943218E+02
 0.12350436996E+02 0.13129874199E+02 0.13829352303E+02 0.14410070446E+02 0.14857993227E+02
 0.15179289846E+02 0.15392923334E+02 0.15522713808E+02 0.15590523357E+02 0.15611357267E+02
 0.15590523201E+02 0.15522713640E+02 0.15392923307E+02 0.15179289994E+02 0.14857993457E+02
 0.14410070641E+02 0.13829352401E+02 0.13129874185E+02 0.12350436848E+02 0.11553942921E+02
 0.10802568351E+02 0.10113343152E+02 0.94908289398E+01 0.89365537566E+01 0.84504245752E+01
 0.80313438323E+01 0.76771792288E+01 0.73845384867E+01 0.71488115444E+01 0.69646846008E+01
 0.68269783776E+01 0.67314403556E+01 0.66751630971E+01 0.66565656689E+01 0.66751629801E+01
 0.67314402213E+01 0.68269783703E+01 0.69646848077E+01 0.71488118998E+01 0.73845387737E+01
 0.76771792185E+01 0.80313434712E+01 0.77711166259E+01 0.83273448261E+01 0.89576583681E+01
 0.96612540236E+01 0.10434724517E+02 0.11270458950E+02 0.12138403326E+02 0.12971568593E+02
 0.13714702980E+02 0.14335060398E+02 0.14821436469E+02 0.15179290017E+02 0.15423959123E+02
 0.15573771887E+02 0.15644284939E+02 0.15644284832E+02 0.15573771652E+02 0.15423958941E+02
 0.15179289994E+02 0.14821436575E+02 0.14335060544E+02 0.13714703127E+02 0.12971568760E+02
 0.12138403514E+02 0.11270459072E+02 0.10434724430E+02 0.96612536580E+01 0.89576578533E+01
 0.83273444576E+01 0.77711166572E+01 0.72881101636E+01 0.68761176089E+01 0.65316036361E+01
 0.62498137192E+01 0.60252308745E+01 0.58523445999E+01 0.57264513294E+01 0.56441599891E+01
 0.56034560624E+01 0.56034560408E+01 0.56441599700E+01 0.57264514090E+01 0.58523448178E+01
 0.60252311200E+01 0.62498137687E+01 0.65316033443E+01 0.68761170884E+01 0.72881097439E+01
 0.72362156151E+01 0.78565566892E+01 0.85558771181E+01 0.93319316117E+01 0.10178946656E+02
 0.11085471179E+02 0.12011123950E+02 0.12891062097E+02 0.13675610637E+02 0.14335060463E+02
 0.14857993454E+02 0.15246695068E+02 0.15511252750E+02 0.15663728166E+02 0.15713404852E+02
 0.15663728013E+02 0.15511252544E+02 0.15246694938E+02 0.14857993457E+02 0.14335060544E+02
 0.13675610685E+02 0.12891062072E+02 0.12011123947E+02 0.11085471335E+02 0.10178946978E+02
 0.93319319038E+01 0.85558771228E+01 0.78565563235E+01 0.72362150773E+01 0.66946649734E+01
 0.62298628435E+01 0.58381576850E+01 0.55145272595E+01 0.52530570551E+01 0.50476935580E+01
 0.48930714716E+01 0.47851161456E+01 0.47212233953E+01 0.47000573185E+01 0.47212234540E+01
 0.47851162584E+01 0.48930715850E+01 0.50476935576E+01 0.52530568468E+01 0.55145268915E+01
 0.58381573761E+01 0.62298628434E+01 0.66946653468E+01 0.68354232833E+01 0.75150469364E+01
 0.82772513337E+01 0.91179618853E+01 0.10028759207E+02 0.10994140491E+02 0.11968662932E+02
 0.12891062142E+02 0.13714703053E+02 0.14410070574E+02 0.14963046235E+02 0.15370982740E+02
 0.15637808101E+02 0.15769278190E+02 0.15769278152E+02 0.15637808002E+02 0.15370982632E+02
 0.14963046201E+02 0.14410070641E+02 0.13714703127E+02 0.12891062072E+02 0.11968662682E+02
 0.10994140235E+02 0.10028759205E+02 0.91179622447E+01 0.82772518771E+01 0.75150473139E+01
 0.68354232388E+01 0.62392648906E+01 0.57250124913E+01 0.52890956539E+01 0.49263051969E+01
 0.46303290779E+01 0.43945183781E+01 0.42127477059E+01 0.40801133106E+01 0.39932500459E+01
 0.39502308603E+01 0.39502308876E+01 0.39932501080E+01 0.40801133409E+01 0.42127476131E+01
 0.43945181383E+01 0.46303288192E+01 0.49263051470E+01 0.52890959486E+01 0.57250130153E+01
 0.62392653219E+01 0.65586107041E+01 0.72937899237E+01 0.81139380315E+01 0.90128742333E+01
 0.99792991538E+01 0.10994140438E+02 0.12011123925E+02 0.12971568630E+02 0.13829352310E+02
 0.14552767552E+02 0.15123202801E+02 0.15532100236E+02 0.15777152182E+02 0.15858695883E+02
 0.15777152192E+02 0.15532100226E+02 0.15123202770E+02 0.14552767556E+02 0.13829352401E+02
 0.12971568760E+02 0.12011123947E+02 0.10994140235E+02 0.99792987802E+01 0.90128739250E+01
 0.81139380347E+01 0.72937902871E+01 0.65586112197E+01 0.59106530322E+01 0.53491085625E+01
 0.48707028626E+01 0.44701946813E+01 0.41409817056E+01 0.38758885200E+01 0.36680511047E+01
 0.35116901359E+01 0.34025604691E+01 0.33379887002E+01 0.33166011097E+01 0.33379886839E+01
 0.34025604106E+01 0.35116900269E+01 0.36680510009E+01 0.38758885327E+01 0.41409819161E+01
 0.44701950345E+01 0.48707031525E+01 0.53491085612E+01 0.59106526797E+01 0.63967752830E+01
 0.71853023944E+01 0.80602035444E+01 0.90128742726E+01 0.10028759191E+02 0.11085471071E+02
 0.12138403246E+02 0.13129874076E+02 0.14012108605E+02 0.14749502193E+02 0.15318002945E+02
 0.15703099748E+02 0.15897192520E+02 0.15897192544E+02 0.15703099788E+02 0.15318002941E+02
 0.14749502135E+02 0.14012108572E+02 0.13129874185E+02 0.12138403514E+02 0.11085471335E+02
 0.10028759205E+02 0.90128739250E+01 0.80602029992E+01 0.71853019979E+01 0.63967753012E+01
 0.56985036249E+01 0.50906411995E+01 0.45703711369E+01 0.41325505714E+01 0.37704033418E+01
 0.34763391369E+01 0.32428493021E+01 0.30633221987E+01 0.29325941491E+01 0.28471272727E+01
 0.28048517946E+01 0.28048517767E+01 0.28471272158E+01 0.29325940720E+01 0.30633221762E+01
 0.32428494240E+01 0.34763394020E+01 0.37704035982E+01 0.41325505967E+01 0.45703708209E+01
 0.50906406751E+01 0.56985032126E+01 0.63435922860E+01 0.71853023565E+01 0.81139380263E+01
 0.91179619304E+01 0.10178946607E+02 0.11270458867E+02 0.12350436854E+02 0.13361340860E+02
 0.14252232227E+02 0.14982793976E+02 0.15523607247E+02 0.15855266694E+02 0.15966966615E+02
 0.15855266702E+02 0.15523607250E+02 0.14982793941E+02 0.14252232133E+02 0.13361340749E+02
 0.12350436848E+02 0.11270459072E+02 0.10178946978E+02 0.91179622447E+01 0.81139380347E+01
 0.71853019979E+01 0.63435917647E+01 0.55946875508E+01 0.49399436968E+01 0.43771382796E+01
 0.39013052247E+01 0.35055586496E+01 0.31819734917E+01 0.29224949578E+01 0.27197668192E+01
 0.25677385815E+01 0.24619532202E+01 0.23995170881E+01 0.23788669103E+01 0.23995170774E+01
 0.24619532211E+01 0.25677386282E+01 0.27197669230E+01 0.29224950652E+01 0.31819734887E+01
 0.35055584481E+01 0.39013048745E+01 0.43771379895E+01 0.49399437014E+01 0.55946879116E+01
 0.63967753026E+01 0.72937898789E+01 0.82772513387E+01 0.93319315764E+01 0.10434724454E+02
 0.11553943171E+02 0.12648094592E+02 0.13661283349E+02 0.14538814874E+02 0.15235907072E+02
 0.15718992483E+02 0.15965980941E+02 0.15965980926E+02 0.15718992465E+02 0.15235907085E+02
 0.14538814879E+02 0.13661283248E+02 0.12648094350E+02 0.11553942921E+02 0.10434724430E+02
 0.93319319038E+01 0.82772518771E+01 0.72937902871E+01 0.63967753012E+01 0.55946875508E+01
 0.48904833560E+01 0.42827514169E+01 0.37667833832E+01 0.33355987861E+01 0.29809501020E+01
 0.26942812650E+01 0.24675646075E+01 0.22939256336E+01 0.21679924495E+01 0.20859694035E+01
 0.20455088983E+01 0.20455089013E+01 0.20859694250E+01 0.21679925053E+01 0.22939257013E+01
 0.24675646121E+01 0.26942811300E+01 0.29809498394E+01 0.33355985443E+01 0.37667833743E+01
 0.42827517449E+01 0.48904838847E+01 0.55946879555E+01 0.65586107065E+01 0.75150469672E+01
 0.85558771387E+01 0.96612539740E+01 0.10802568722E+02 0.11942305830E+02 0.13035015872E+02
 0.14028260151E+02 0.14865702485E+02 0.15499463260E+02 0.15894144380E+02 0.16028124464E+02
 0.15894144347E+02 0.15499463262E+02 0.14865702574E+02 0.14028260276E+02 0.13035015890E+02
 0.11942305628E+02 0.10802568351E+02 0.96612536580E+01 0.85558771228E+01 0.75150473139E+01
 0.65586112197E+01 0.56985036249E+01 0.49399436968E+01 0.42827514169E+01 0.37226747715E+01
 0.32526804303E+01 0.28641679109E+01 0.25480507616E+01 0.22956397261E+01 0.20992771129E+01
 0.19527062363E+01 0.18512032810E+01 0.17915378059E+01 0.17718507071E+01 0.17915378172E+01
 0.18512032997E+01 0.19527062411E+01 0.20992770678E+01 0.22956396173E+01 0.25480506453E+01
 0.28641679074E+01 0.32526806319E+01 0.37226751249E+01 0.42827517069E+01 0.49399436885E+01
 0.56985032637E+01 0.68354232527E+01 0.78565567412E+01 0.89576583929E+01 0.10113343483E+02
 0.11288872491E+02 0.12440747878E+02 0.13518595016E+02 0.14468489839E+02 0.15237513970E+02
 0.15778769193E+02 0.16058170665E+02 0.16058170646E+02 0.15778769159E+02 0.15237513989E+02
 0.14468489982E+02 0.13518595278E+02 0.12440748122E+02 0.11288872503E+02 0.10113343152E+02
 0.89576578533E+01 0.78565563235E+01 0.68354232388E+01 0.59106530322E+01 0.50906411995E+01
 0.43771382796E+01 0.37667833832E+01 0.32526804303E+01 0.28258930246E+01 0.24767411163E+01
 0.21958099148E+01 0.19746334903E+01 0.18060763380E+01 0.16844835391E+01 0.16056894764E+01
 0.15669660971E+01 0.15669660988E+01 0.16056894759E+01 0.16844835214E+01 0.18060762914E+01
 0.19746334339E+01 0.21958099143E+01 0.24767412456E+01 0.28258932775E+01 0.32526806639E+01
 0.37667833850E+01 0.43771379447E+01 0.50906406697E+01 0.59106526371E+01 0.72362155802E+01
 0.83273448021E+01 0.94908289311E+01 0.10695037610E+02 0.11898821618E+02 0.13052960697E+02
 0.14102970979E+02 0.14993260861E+02 0.15672300072E+02 0.16098122816E+02 0.16243252763E+02
 0.16098122828E+02 0.15672300043E+02 0.14993260789E+02 0.14102970972E+02 0.13052960877E+02
 0.11898821963E+02 0.10695037909E+02 0.94908289398E+01 0.83273444576E+01 0.72362150773E+01
 0.62392648906E+01 0.53491085625E+01 0.45703711369E+01 0.39013052247E+01 0.33355987861E+01
 0.28641679109E+01 0.24767411163E+01 0.21630898842E+01 0.19138447523E+01 0.17209319810E+01
 0.15777375625E+01 0.14791286425E+01 0.14214364737E+01 0.14024519818E+01 0.14214364625E+01
 0.14791286231E+01 0.15777375437E+01 0.17209319839E+01 0.19138448065E+01 0.21630899963E+01
 0.24767412280E+01 0.28641679070E+01 0.33355985831E+01 0.39013048787E+01 0.45703708557E+01
 0.53491085707E+01 0.62392652419E+01 0.77711166163E+01 0.89365533203E+01 0.10162972372E+02
 0.11412119192E+02 0.12636518886E+02 0.13781799115E+02 0.14790372739E+02 0.15606298400E+02
 0.16180810812E+02 0.16477717047E+02 0.16477717097E+02 0.16180810876E+02 0.15606298319E+02
 0.14790372469E+02 0.13781798818E+02 0.12636518825E+02 0.11412119501E+02 0.10162972914E+02
 0.89365537566E+01 0.77711166572E+01 0.66946649734E+01 0.57250124913E+01 0.48707028626E+01
 0.41325505714E+01 0.35055586496E+01 0.29809501020E+01 0.25480507616E+01 0.21958099148E+01
 0.19138447523E+01 0.16930183741E+01 0.15256653433E+01 0.14056267870E+01 0.13282376340E+01
 0.12903422856E+01 0.12903422806E+01 0.13282376216E+01 0.14056267777E+01 0.15256653564E+01
 0.16930184234E+01 0.19138448152E+01 0.21958099180E+01 0.25480506268E+01 0.29809498417E+01
 0.35055584200E+01 0.41325505889E+01 0.48707032178E+01 0.57250130230E+01 0.66946653488E+01
 0.84504240669E+01 0.96930369894E+01 0.10981310308E+02 0.12270274702E+02 0.13506428899E+02
 0.14630922930E+02 0.15584061366E+02 0.16310770710E+02 0.16766350980E+02 0.16921597362E+02
 0.16766351068E+02 0.16310770807E+02 0.15584061346E+02 0.14630922708E+02 0.13506428531E+02
 0.12270274400E+02 0.10981310304E+02 0.96930373393E+01 0.84504245752E+01 0.72881101636E+01
 0.62298628435E+01 0.52890956539E+01 0.44701946813E+01 0.37704033418E+01 0.31819734917E+01
 0.26942812650E+01 0.22956397261E+01 0.19746334903E+01 0.17209319810E+01 0.15256653433E+01
 0.13815262910E+01 0.12827685274E+01 0.12252165241E+01 0.12063192616E+01 0.12252165331E+01
 0.12827685382E+01 0.13815263006E+01 0.15256653521E+01 0.17209319764E+01 0.19746334412E+01
 0.22956396184E+01 0.26942811514E+01 0.31819734891E+01 0.37704035403E+01 0.44701950295E+01
 0.52890959416E+01 0.62298628391E+01 0.72881098100E+01 0.92848222787E+01 0.10606310329E+02
 0.11954260140E+02 0.13276981674E+02 0.14515235240E+02 0.15606298052E+02 0.16489283575E+02
 0.17111156018E+02 0.17432576918E+02 0.17432576928E+02 0.17111156102E+02 0.16489283794E+02
 0.15606298319E+02 0.14515235324E+02 0.13276981409E+02 0.11954259621E+02 0.10606309879E+02
 0.92848222052E+01 0.80313438323E+01 0.68761176089E+01 0.58381576850E+01 0.49263051969E+01
 0.41409817056E+01 0.34763391369E+01 0.29224949578E+01 0.24675646075E+01 0.20992771129E+01
 0.18060763380E+01 0.15777375625E+01 0.14056267870E+01 0.12827685274E+01 0.12038619215E+01
 0.11653175859E+01 0.11653175950E+01 0.12038619414E+01 0.12827685441E+01 0.14056267897E+01
 0.15777375405E+01 0.18060762848E+01 0.20992770523E+01 0.24675646107E+01 0.29224950975E+01
 0.34763393914E+01 0.41409819150E+01 0.49263051542E+01 0.58381573171E+01 0.68761170877E+01
 0.80313434866E+01 0.10286698710E+02 0.11688251684E+02 0.13093122713E+02 0.14442745506E+02
 0.15672299644E+02 0.16715760847E+02 0.17512062536E+02 0.18011493069E+02 0.18181668029E+02
 0.18011492985E+02 0.17512062531E+02 0.16715761069E+02 0.15672300043E+02 0.14442745837E+02
 0.13093122719E+02 0.11688251317E+02 0.10286698182E+02 0.89372753705E+01 0.76771792288E+01
 0.65316036361E+01 0.55145272595E+01 0.46303290779E+01 0.38758885200E+01 0.32428493021E+01
 0.27197668192E+01 0.22939256336E+01 0.19527062363E+01 0.16844835391E+01 0.14791286425E+01
 0.13282376340E+01 0.12252165241E+01 0.11653175859E+01 0.11456715136E+01 0.11653175856E+01
 0.12252165236E+01 0.13282376324E+01 0.14791286366E+01 0.16844835289E+01 0.19527062384E+01
 0.22939256815E+01 0.27197669266E+01 0.32428494137E+01 0.38758885156E+01 0.46303288674E+01
 0.55145268995E+01 0.65316033426E+01 0.76771792359E+01 0.89372757355E+01 0.11471448646E+02
 0.12953873728E+02 0.14411821574E+02 0.15778768885E+02 0.16979573821E+02 0.17944682883E+02
 0.18619260869E+02 0.18965948966E+02 0.18965948861E+02 0.18619260613E+02 0.17944682635E+02
 0.16979573782E+02 0.15778769159E+02 0.14411822056E+02 0.12953874131E+02 0.11471448703E+02
 0.10021281106E+02 0.86482806873E+01 0.73845384867E+01 0.62498137192E+01 0.52530570551E+01
 0.43945183781E+01 0.36680511047E+01 0.30633221987E+01 0.25677385815E+01 0.21679924495E+01
 0.18512032810E+01 0.16056894764E+01 0.14214364737E+01 0.12903422856E+01 0.12063192616E+01
 0.11653175950E+01 0.11653175856E+01 0.12063192419E+01 0.12903422702E+01 0.14214364684E+01
 0.16056894817E+01 0.18512033052E+01 0.21679925003E+01 0.25677386345E+01 0.30633221851E+01
 0.36680509608E+01 0.43945181318E+01 0.52530568599E+01 0.62498137658E+01 0.73845388382E+01