unknown system                          
   1.00000000000000     
     0.000000    2.816500    2.816500
     2.816500    0.000000    2.816500
     2.816500    2.816500    0.000000
   Ge
     2
Direct
  0.000000  0.000000  0.000000
  0.250000  0.250000  0.250000
 
   48   48   48
 -.68479959196E+01 -.60829224257E+01 -.38931889765E+01 -.57828143851E+00 0.34176065143E+01
 0.75807310100E+01 0.11415169130E+02 0.14522747030E+02 0.16656413250E+02 0.17736879808E+02
 0.17835380683E+02 0.17135103739E+02 0.15885674525E+02 0.14360419938E+02 0.12820084979E+02
 0.11453297323E+02 0.10281699032E+02 0.92883999464E+01 0.84596170850E+01 0.77843222702E+01
 0.72525083981E+01 0.68540263358E+01 0.65787384383E+01 0.64177157926E+01 0.63647789350E+01
 0.64177158197E+01 0.65787384428E+01 0.68540262904E+01 0.72525083354E+01 0.77843222375E+01
 0.84596170929E+01 0.92883999810E+01 0.10281699084E+02 0.11453297378E+02 0.12820084988E+02
 0.14360419862E+02 0.15885674398E+02 0.17135103652E+02 0.17835380690E+02 0.17736879867E+02
 0.16656413285E+02 0.14522747028E+02 0.11415169150E+02 0.75807310922E+01 0.34176066200E+01
 -.57828138310E+00 -.38931889941E+01 -.60829224654E+01 -.60829224257E+01 -.46257055312E+01
 -.19037368141E+01 0.17271507297E+01 0.58037305772E+01 0.98308186093E+01 0.13361671269E+02
 0.16064826308E+02 0.17762302684E+02 0.18434213282E+02 0.18195840467E+02 0.17258999929E+02
 0.15888574591E+02 0.14360734910E+02 0.12921329742E+02 0.11671990934E+02 0.10601041151E+02
 0.96948442758E+01 0.89431486119E+01 0.83375025078E+01 0.78694358423E+01 0.75298373140E+01
 0.73097110226E+01 0.72017169693E+01 0.72017169597E+01 0.73097110225E+01 0.75298373494E+01
 0.78694358690E+01 0.83375024747E+01 0.89431485538E+01 0.96948442691E+01 0.10601041200E+02
 0.11671990977E+02 0.12921329755E+02 0.14360734920E+02 0.15888574589E+02 0.17258999875E+02
 0.18195840407E+02 0.18434213327E+02 0.17762302780E+02 0.16064826147E+02 0.13361670612E+02
 0.98308177347E+01 0.58037302335E+01 0.17271515136E+01 -.19037350728E+01 -.46257037608E+01
 -.60829216837E+01 -.38931889765E+01 -.19037368141E+01 0.11288412065E+01 0.48225880524E+01
 0.87254279651E+01 0.12386424851E+02 0.15425529974E+02 0.17585939927E+02 0.18758764228E+02
 0.18979166102E+02 0.18400826414E+02 0.17258047729E+02 0.15823104887E+02 0.14363944513E+02
 0.13064231397E+02 0.11938748899E+02 0.10974403146E+02 0.10161595067E+02 0.94933347792E+01
 0.89631044277E+01 0.85634712642E+01 0.82862046519E+01 0.81235729480E+01 0.80700338903E+01
 0.81235729631E+01 0.82862046813E+01 0.85634712980E+01 0.89631044536E+01 0.94933347960E+01
 0.10161595076E+02 0.10974403135E+02 0.11938748861E+02 0.13064231366E+02 0.14363944535E+02
 0.15823104945E+02 0.17258047744E+02 0.18400826374E+02 0.18979166119E+02 0.18758764381E+02
 0.17585940032E+02 0.15425529650E+02 0.12386423968E+02 0.87254270230E+01 0.48225879462E+01
 0.11288424382E+01 -.19037347587E+01 -.38931873986E+01 -.45858884164E+01 -.57828143851E+00
 0.17271507297E+01 0.48225880524E+01 0.83291131106E+01 0.11831413659E+02 0.14941215291E+02
 0.17354458878E+02 0.18890058090E+02 0.19504159848E+02 0.19281034188E+02 0.18406193613E+02
 0.17128283113E+02 0.15715672044E+02 0.14400549043E+02 0.13250214600E+02 0.12253521671E+02
 0.11401521997E+02 0.10688441335E+02 0.10109655929E+02 0.96597345886E+01 0.93318527068E+01
 0.91186492847E+01 0.90138506728E+01 0.90138506973E+01 0.91186493133E+01 0.93318526878E+01
 0.96597345682E+01 0.10109655991E+02 0.10688441461E+02 0.11401522066E+02 0.12253521617E+02
 0.13250214489E+02 0.14400548977E+02 0.15715672041E+02 0.17128283118E+02 0.18406193587E+02
 0.19281034160E+02 0.19504159883E+02 0.18890058220E+02 0.17354459026E+02 0.14941215273E+02
 0.11831413357E+02 0.83291127008E+01 0.48225879532E+01 0.17271511847E+01 -.57828072294E+00
 -.18075887081E+01 -.18075890556E+01 0.34176065143E+01 0.58037305772E+01 0.87254279651E+01
 0.11831413659E+02 0.14761439665E+02 0.17199797129E+02 0.18920211844E+02 0.19813574602E+02
 0.19894901466E+02 0.19290536877E+02 0.18209285448E+02 0.16902521110E+02 0.15617071349E+02
 0.14476866332E+02 0.13479158566E+02 0.12615810455E+02 0.11881986759E+02 0.11274633880E+02
 0.10790266165E+02 0.10423770560E+02 0.10168733036E+02 0.10018820446E+02 0.99694122105E+01
 0.10018820432E+02 0.10168732989E+02 0.10423770499E+02 0.10790266162E+02 0.11274633991E+02
 0.11881986947E+02 0.12615810597E+02 0.13479158559E+02 0.14476866190E+02 0.15617071188E+02
 0.16902521032E+02 0.18209285442E+02 0.19290536841E+02 0.19894901333E+02 0.19813574446E+02
 0.18920211835E+02 0.17199797363E+02 0.14761440035E+02 0.11831413928E+02 0.87254279622E+01
 0.58037303284E+01 0.34176061936E+01 0.18581430790E+01 0.13162205557E+01 0.18581432893E+01
 0.75807310100E+01 0.98308186093E+01 0.12386424851E+02 0.14941215291E+02 0.17199797129E+02
 0.18921220487E+02 0.19953594867E+02 0.20253559484E+02 0.19887574766E+02 0.19015052081E+02
 0.17856048359E+02 0.16648856396E+02 0.15556881354E+02 0.14593180496E+02 0.13750697118E+02
 0.13025322763E+02 0.12415104215E+02 0.11918107344E+02 0.11530831078E+02 0.11247980882E+02
 0.11063195709E+02 0.10971856311E+02 0.10971856287E+02 0.11063195645E+02 0.11247980791E+02
 0.11530830988E+02 0.11918107325E+02 0.12415104357E+02 0.13025323051E+02 0.13750697377E+02
 0.14593180532E+02 0.15556881167E+02 0.16648856186E+02 0.17856048294E+02 0.19015052117E+02
 0.19887574731E+02 0.20253559284E+02 0.19953594567E+02 0.18921220231E+02 0.17199797045E+02
 0.14941215450E+02 0.12386425230E+02 0.98308190711E+01 0.75807313798E+01 0.59093583757E+01
 0.50197972724E+01 0.50197972196E+01 0.59093581808E+01 0.11415169130E+02 0.13361671269E+02
 0.15425529974E+02 0.17354458878E+02 0.18920211844E+02 0.19953594867E+02 0.20371077415E+02
 0.20187459322E+02 0.19511234212E+02 0.18522352670E+02 0.17435901095E+02 0.16430383679E+02
 0.15536785587E+02 0.14749402728E+02 0.14064745366E+02 0.13481477045E+02 0.12998602136E+02
 0.12612343602E+02 0.12315155839E+02 0.12103252926E+02 0.11975873511E+02 0.11933335831E+02
 0.11975873510E+02 0.12103252849E+02 0.12315155651E+02 0.12612343403E+02 0.12998602107E+02
 0.13481477280E+02 0.14064745755E+02 0.14749403027E+02 0.15536785628E+02 0.16430383500E+02
 0.17435900892E+02 0.18522352614E+02 0.19511234322E+02 0.20187459467E+02 0.20371077402E+02
 0.19953594552E+02 0.18920211234E+02 0.17354458203E+02 0.15425529635E+02 0.13361671617E+02
 0.11415170185E+02 0.98256071993E+01 0.87875996008E+01 0.84271062588E+01 0.87875986803E+01
 0.98256058701E+01 0.14522747030E+02 0.16064826308E+02 0.17585939927E+02 0.18890058090E+02
 0.19813574602E+02 0.20253559484E+02 0.20187459322E+02 0.19678656082E+02 0.18864735037E+02
 0.17929383333E+02 0.17045298239E+02 0.16255835015E+02 0.15556881354E+02 0.14945549596E+02
 0.14420729314E+02 0.13980219268E+02 0.13613296869E+02 0.13313597513E+02 0.13082242110E+02
 0.12923822620E+02 0.12843154380E+02 0.12843154419E+02 0.12923822638E+02 0.13082241945E+02
 0.13313597176E+02 0.13613296581E+02 0.13980219265E+02 0.14420729628E+02 0.14945550036E+02
 0.15556881665E+02 0.16255835049E+02 0.17045298037E+02 0.17929383083E+02 0.18864734947E+02
 0.19678656251E+02 0.20187459667E+02 0.20253559770E+02 0.19813574547E+02 0.18890057544E+02
 0.17585939059E+02 0.16064825642E+02 0.14522747133E+02 0.13157596491E+02 0.12141662374E+02
 0.11600707255E+02 0.11600706705E+02 0.12141661158E+02 0.13157595524E+02 0.16656413250E+02
 0.17762302684E+02 0.18758764228E+02 0.19504159848E+02 0.19894901466E+02 0.19887574766E+02
 0.19511234212E+02 0.18864735037E+02 0.18097507028E+02 0.17363035537E+02 0.16706446159E+02
 0.16125210002E+02 0.15617071349E+02 0.15180836518E+02 0.14807515630E+02 0.14479865275E+02
 0.14193204644E+02 0.13953230532E+02 0.13770503045E+02 0.13655742136E+02 0.13616577577E+02
 0.13655742226E+02 0.13770503039E+02 0.13953230268E+02 0.14193204185E+02 0.14479864909E+02
 0.14807515634E+02 0.15180836913E+02 0.15617071874E+02 0.16125210336E+02 0.16706446159E+02
 0.17363035279E+02 0.18097506694E+02 0.18864734798E+02 0.19511234215E+02 0.19887575102E+02
 0.19894902046E+02 0.19504160335E+02 0.18758764226E+02 0.17762302103E+02 0.16656412456E+02
 0.15595183574E+02 0.14721554325E+02 0.14149072029E+02 0.13950004512E+02 0.14149071835E+02
 0.14721554323E+02 0.15595184060E+02 0.17736879808E+02 0.18434213282E+02 0.18979166102E+02
 0.19281034188E+02 0.19290536877E+02 0.19015052081E+02 0.18522352670E+02 0.17929383333E+02
 0.17363035537E+02 0.16859970469E+02 0.16418847195E+02 0.16038065654E+02 0.15715672044E+02
 0.15433404950E+02 0.15168032779E+02 0.14914351918E+02 0.14681231699E+02 0.14484817515E+02
 0.14342285932E+02 0.14267301003E+02 0.14267301108E+02 0.14342286123E+02 0.14484817519E+02
 0.14681231340E+02 0.14914351322E+02 0.15168032331E+02 0.15433404987E+02 0.15715672551E+02
 0.16038066282E+02 0.16418847579E+02 0.16859970490E+02 0.17363035296E+02 0.17929382959E+02
 0.18522352251E+02 0.19015051771E+02 0.19290536910E+02 0.19281034688E+02 0.18979166870E+02
 0.18434213856E+02 0.17736879797E+02 0.16998486956E+02 0.16330447386E+02 0.15827920878E+02
 0.15559033606E+02 0.15559033904E+02 0.15827921654E+02 0.16330448311E+02 0.16998487586E+02
 0.17835380683E+02 0.18195840467E+02 0.18400826414E+02 0.18406193613E+02 0.18209285448E+02
 0.17856048359E+02 0.17435901095E+02 0.17045298239E+02 0.16706446159E+02 0.16418847195E+02
 0.16181530979E+02 0.15991715057E+02 0.15823104887E+02 0.15644831032E+02 0.15448123969E+02
 0.15242554335E+02 0.15048395836E+02 0.14888884669E+02 0.14784219513E+02 0.14747781660E+02
 0.14784219834E+02 0.14888885023E+02 0.15048395854E+02 0.15242553862E+02 0.15448123236E+02
 0.15644830518E+02 0.15823104946E+02 0.15991715629E+02 0.16181531669E+02 0.16418847636E+02
 0.16706446276E+02 0.17045298162E+02 0.17435900895E+02 0.17856047962E+02 0.18209284855E+02
 0.18406193096E+02 0.18400826373E+02 0.18195841037E+02 0.17835381520E+02 0.17390096667E+02
 0.16939917229E+02 0.16559162477E+02 0.16306216298E+02 0.16217753808E+02 0.16306216861E+02
 0.16559163124E+02 0.16939917391E+02 0.17390096154E+02 0.17135103739E+02 0.17258999929E+02
 0.17258047729E+02 0.17128283113E+02 0.16902521110E+02 0.16648856396E+02 0.16430383679E+02
 0.16255835015E+02 0.16125210002E+02 0.16038065654E+02 0.15991715057E+02 0.15955380772E+02
 0.15888574591E+02 0.15775440819E+02 0.15622842109E+02 0.15452627736E+02 0.15292680491E+02
 0.15169369387E+02 0.15102485450E+02 0.15102485693E+02 0.15169369956E+02 0.15292680986E+02
 0.15452627756E+02 0.15622841536E+02 0.15775439962E+02 0.15888573996E+02 0.15955380802E+02
 0.15991715612E+02 0.16038066300E+02 0.16125210400E+02 0.16255835179E+02 0.16430383816E+02
 0.16648856545E+02 0.16902521033E+02 0.17128282592E+02 0.17258046915E+02 0.17258999309E+02
 0.17135103719E+02 0.16919247925E+02 0.16660562054E+02 0.16411517941E+02 0.16217898229E+02
 0.16112596270E+02 0.16112596264E+02 0.16217898094E+02 0.16411517493E+02 0.16660561361E+02
 0.16919247382E+02 0.15885674525E+02 0.15888574591E+02 0.15823104887E+02 0.15715672044E+02
 0.15617071349E+02 0.15556881354E+02 0.15536785587E+02 0.15556881354E+02 0.15617071349E+02
 0.15715672044E+02 0.15823104887E+02 0.15888574591E+02 0.15885674525E+02 0.15814531857E+02
 0.15695008669E+02 0.15557149463E+02 0.15432201921E+02 0.15346064102E+02 0.15315441349E+02
 0.15346064580E+02 0.15432202645E+02 0.15557150021E+02 0.15695008670E+02 0.15814531218E+02
 0.15885673605E+02 0.15888573964E+02 0.15823104894E+02 0.15715672522E+02 0.15617071829E+02
 0.15556881530E+02 0.15536785586E+02 0.15556881530E+02 0.15617071829E+02 0.15715672522E+02
 0.15823104894E+02 0.15888573964E+02 0.15885673605E+02 0.15814531218E+02 0.15695008670E+02
 0.15557150021E+02 0.15432202645E+02 0.15346064580E+02 0.15315441349E+02 0.15346064102E+02
 0.15432201921E+02 0.15557149463E+02 0.15695008669E+02 0.15814531857E+02 0.14360419938E+02
 0.14360734910E+02 0.14363944513E+02 0.14400549043E+02 0.14476866332E+02 0.14593180496E+02
 0.14749402728E+02 0.14945549596E+02 0.15180836518E+02 0.15433404950E+02 0.15644831032E+02
 0.15775440819E+02 0.15814531857E+02 0.15775687092E+02 0.15687583595E+02 0.15584032819E+02
 0.15495902272E+02 0.15445903152E+02 0.15445903356E+02 0.15495902829E+02 0.15584033532E+02
 0.15687584119E+02 0.15775687086E+02 0.15814531256E+02 0.15775439964E+02 0.15644830466E+02
 0.15433404978E+02 0.15180836948E+02 0.14945549928E+02 0.14749402645E+02 0.14593180176E+02
 0.14476866257E+02 0.14400549507E+02 0.14363945304E+02 0.14360735476E+02 0.14360419863E+02
 0.14338779808E+02 0.14290166128E+02 0.14222634262E+02 0.14151399014E+02 0.14092812536E+02
 0.14059950381E+02 0.14059950203E+02 0.14092812187E+02 0.14151398900E+02 0.14222634652E+02
 0.14290166890E+02 0.14338780461E+02 0.12820084979E+02 0.12921329742E+02 0.13064231397E+02
 0.13250214600E+02 0.13479158566E+02 0.13750697118E+02 0.14064745366E+02 0.14420729314E+02
 0.14807515630E+02 0.15168032779E+02 0.15448123969E+02 0.15622842109E+02 0.15695008669E+02
 0.15687583595E+02 0.15633566782E+02 0.15566685811E+02 0.15514660047E+02 0.15495287453E+02
 0.15514660264E+02 0.15566686264E+02 0.15633567385E+02 0.15687584075E+02 0.15695008702E+02
 0.15622841608E+02 0.15448123235E+02 0.15168032320E+02 0.14807515748E+02 0.14420729828E+02
 0.14064745755E+02 0.13750696977E+02 0.13479157967E+02 0.13250214035E+02 0.13064231367E+02
 0.12921330344E+02 0.12820085827E+02 0.12752410412E+02 0.12698710727E+02 0.12647871920E+02
 0.12598848375E+02 0.12556490956E+02 0.12527480424E+02 0.12517144308E+02 0.12527480535E+02
 0.12556491284E+02 0.12598848912E+02 0.12647872397E+02 0.12698710764E+02 0.12752409863E+02
 0.11453297323E+02 0.11671990934E+02 0.11938748899E+02 0.12253521671E+02 0.12615810455E+02
 0.13025322763E+02 0.13481477045E+02 0.13980219268E+02 0.14479865275E+02 0.14914351918E+02
 0.15242554335E+02 0.15452627736E+02 0.15557149463E+02 0.15584032819E+02 0.15566685811E+02
 0.15535909432E+02 0.15514529972E+02 0.15514529972E+02 0.15535909524E+02 0.15566686137E+02
 0.15584033343E+02 0.15557149902E+02 0.15452627768E+02 0.15242553889E+02 0.14914351278E+02
 0.14479864896E+02 0.13980219439E+02 0.13481477652E+02 0.13025323352E+02 0.12615810548E+02
 0.12253521134E+02 0.11938748066E+02 0.11671990367E+02 0.11453297387E+02 0.11281116629E+02
 0.11151503343E+02 0.11057673399E+02 0.10988691066E+02 0.10937485625E+02 0.10902376832E+02
 0.10884264111E+02 0.10884264250E+02 0.10902377176E+02 0.10937485962E+02 0.10988691118E+02
 0.11057673001E+02 0.11151502629E+02 0.11281116023E+02 0.10281699032E+02 0.10601041151E+02
 0.10974403146E+02 0.11401521997E+02 0.11881986759E+02 0.12415104215E+02 0.12998602136E+02
 0.13613296869E+02 0.14193204644E+02 0.14681231699E+02 0.15048395836E+02 0.15292680491E+02
 0.15432201921E+02 0.15495902272E+02 0.15514660047E+02 0.15514529972E+02 0.15512528198E+02
 0.15514529870E+02 0.15514660051E+02 0.15495902548E+02 0.15432202384E+02 0.15292680849E+02
 0.15048395831E+02 0.14681231298E+02 0.14193204058E+02 0.13613296432E+02 0.12998602131E+02
 0.12415104706E+02 0.11881987507E+02 0.11401522557E+02 0.10974403146E+02 0.10601040565E+02
 0.10281698219E+02 0.10015775926E+02 0.98009582241E+01 0.96329209229E+01 0.95058874468E+01
 0.94137934609E+01 0.93514772904E+01 0.93153142840E+01 0.93034136905E+01 0.93153143776E+01
 0.93514772846E+01 0.94137931750E+01 0.95058869334E+01 0.96329204935E+01 0.98009582329E+01
 0.10015776476E+02 0.92883999464E+01 0.96948442758E+01 0.10161595067E+02 0.10688441335E+02
 0.11274633880E+02 0.11918107344E+02 0.12612343602E+02 0.13313597513E+02 0.13953230532E+02
 0.14484817515E+02 0.14888884669E+02 0.15169369387E+02 0.15346064102E+02 0.15445903152E+02
 0.15495287453E+02 0.15514529972E+02 0.15514529870E+02 0.15495287273E+02 0.15445903139E+02
 0.15346064361E+02 0.15169369786E+02 0.14888884960E+02 0.14484817530E+02 0.13953230247E+02
 0.13313597018E+02 0.12612343067E+02 0.11918107013E+02 0.11274633991E+02 0.10688441938E+02
 0.10161595897E+02 0.96948448616E+01 0.92883999328E+01 0.89417798679E+01 0.86532113221E+01
 0.84192319795E+01 0.82349291194E+01 0.80948033191E+01 0.79938514895E+01 0.79283545164E+01
 0.78960892595E+01 0.78960892094E+01 0.79283543353E+01 0.79938511714E+01 0.80948030174E+01
 0.82349291114E+01 0.84192324284E+01 0.86532120583E+01 0.89417804435E+01 0.84596170850E+01
 0.89431486119E+01 0.94933347792E+01 0.10109655929E+02 0.10790266165E+02 0.11530831078E+02
 0.12315155839E+02 0.13082242110E+02 0.13770503045E+02 0.14342285932E+02 0.14784219513E+02
 0.15102485450E+02 0.15315441349E+02 0.15445903356E+02 0.15514660264E+02 0.15535909524E+02
 0.15514660051E+02 0.15445903139E+02 0.15315441343E+02 0.15102485684E+02 0.14784219837E+02
 0.14342286178E+02 0.13770503154E+02 0.13082242089E+02 0.12315155649E+02 0.11530830653E+02
 0.10790265573E+02 0.10109655466E+02 0.94933347959E+01 0.89431491998E+01 0.84596179284E+01
 0.80422570149E+01 0.76893347691E+01 0.73975853179E+01 0.71623387312E+01 0.69782004055E+01
 0.68400338948E+01 0.67438013969E+01 0.66869148298E+01 0.66680766965E+01 0.66869146864E+01
 0.67438012298E+01 0.68400338966E+01 0.69782007147E+01 0.71623392713E+01 0.73975857628E+01
 0.76893347468E+01 0.80422564261E+01 0.77843222702E+01 0.83375025078E+01 0.89631044277E+01
 0.96597345886E+01 0.10423770560E+02 0.11247980882E+02 0.12103252926E+02 0.12923822620E+02
 0.13655742136E+02 0.14267301003E+02 0.14747781660E+02 0.15102485693E+02 0.15346064580E+02
 0.15495902829E+02 0.15566686264E+02 0.15566686137E+02 0.15495902548E+02 0.15346064361E+02
 0.15102485684E+02 0.14747781831E+02 0.14267301211E+02 0.13655742301E+02 0.12923822798E+02
 0.12103253188E+02 0.11247981119E+02 0.10423770499E+02 0.96597340579E+01 0.89631036167E+01
 0.83375019037E+01 0.77843222781E+01 0.73033674799E+01 0.68929253674E+01 0.65496741127E+01
 0.62688359733E+01 0.60447794272E+01 0.58719442639E+01 0.57457294615E+01 0.56629822369E+01
 0.56219607018E+01 0.56219606772E+01 0.56629822296E+01 0.57457295991E+01 0.58719445769E+01
 0.60447797408E+01 0.62688359859E+01 0.65496736483E+01 0.68929245995E+01 0.73033668803E+01
 0.72525083981E+01 0.78694358423E+01 0.85634712642E+01 0.93318527068E+01 0.10168733036E+02
 0.11063195709E+02 0.11975873511E+02 0.12843154380E+02 0.13616577577E+02 0.14267301108E+02
 0.14784219834E+02 0.15169369956E+02 0.15432202645E+02 0.15584033532E+02 0.15633567385E+02
 0.15584033343E+02 0.15432202384E+02 0.15169369786E+02 0.14784219837E+02 0.14267301211E+02
 0.13616577626E+02 0.12843154325E+02 0.11975873508E+02 0.11063195980E+02 0.10168733584E+02
 0.93318531999E+01 0.85634712731E+01 0.78694352389E+01 0.72525075198E+01 0.67131788050E+01
 0.62499799718E+01 0.58595769561E+01 0.55370056307E+01 0.52762632724E+01 0.50712105203E+01
 0.49165059982E+01 0.48082313806E+01 0.47440116304E+01 0.47227103728E+01 0.47440116888E+01
 0.48082315090E+01 0.49165061400E+01 0.50712105152E+01 0.52762629687E+01 0.55370050807E+01
 0.58595764855E+01 0.62499799778E+01 0.67131794087E+01 0.68540263358E+01 0.75298373140E+01
 0.82862046519E+01 0.91186492847E+01 0.10018820446E+02 0.10971856311E+02 0.11933335831E+02
 0.12843154419E+02 0.13655742226E+02 0.14342286123E+02 0.14888885023E+02 0.15292680986E+02
 0.15557150021E+02 0.15687584119E+02 0.15687584075E+02 0.15557149902E+02 0.15292680849E+02
 0.14888884960E+02 0.14342286178E+02 0.13655742301E+02 0.12843154325E+02 0.11933335497E+02
 0.10971855948E+02 0.10018820432E+02 0.91186498164E+01 0.82862054914E+01 0.75298379188E+01
 0.68540262925E+01 0.62602915496E+01 0.57476773369E+01 0.53130069651E+01 0.49512144485E+01
 0.46559573948E+01 0.44205122490E+01 0.42387442322E+01 0.41058496788E+01 0.40186455862E+01
 0.39753958209E+01 0.39753958442E+01 0.40186456328E+01 0.41058496758E+01 0.42387440850E+01
 0.44205119391E+01 0.46559570799E+01 0.49512144191E+01 0.53130074130E+01 0.57476781145E+01
 0.62602921874E+01 0.65787384383E+01 0.73097110226E+01 0.81235729480E+01 0.90138506728E+01
 0.99694122105E+01 0.10971856287E+02 0.11975873510E+02 0.12923822638E+02 0.13770503039E+02
 0.14484817519E+02 0.15048395854E+02 0.15452627756E+02 0.15695008670E+02 0.15775687086E+02
 0.15695008702E+02 0.15452627768E+02 0.15048395831E+02 0.14484817530E+02 0.13770503154E+02
 0.12923822798E+02 0.11975873508E+02 0.10971855948E+02 0.99694116157E+01 0.90138501898E+01
 0.81235729691E+01 0.73097116253E+01 0.65787392805E+01 0.59334674274E+01 0.53736739843E+01
 0.48965109301E+01 0.44969396500E+01 0.41683836486E+01 0.39036241195E+01 0.36957862913E+01
 0.35391639498E+01 0.34296597863E+01 0.33647724276E+01 0.33432627925E+01 0.33647724184E+01
 0.34296597267E+01 0.35391638163E+01 0.36957861516E+01 0.39036241355E+01 0.41683839565E+01
 0.44969401860E+01 0.48965113819E+01 0.53736739821E+01 0.59334668583E+01 0.64177157926E+01
 0.72017169693E+01 0.80700338903E+01 0.90138506973E+01 0.10018820432E+02 0.11063195645E+02
 0.12103252849E+02 0.13082241945E+02 0.13953230268E+02 0.14681231340E+02 0.15242553862E+02
 0.15622841536E+02 0.15814531218E+02 0.15814531256E+02 0.15622841608E+02 0.15242553889E+02
 0.14681231298E+02 0.13953230247E+02 0.13082242089E+02 0.12103253188E+02 0.11063195980E+02
 0.10018820432E+02 0.90138501898E+01 0.80700330872E+01 0.72017163713E+01 0.64177158076E+01
 0.57223941545E+01 0.51164485192E+01 0.45974891393E+01 0.41606057977E+01 0.37990870602E+01
 0.35053288064E+01 0.32718221720E+01 0.30920198678E+01 0.29608856606E+01 0.28750348359E+01
 0.28325298173E+01 0.28325298085E+01 0.28750348010E+01 0.29608856068E+01 0.30920198659E+01
 0.32718223277E+01 0.35053291359E+01 0.37990873850E+01 0.41606058134E+01 0.45974886694E+01
 0.51164477415E+01 0.57223935458E+01 0.63647789350E+01 0.72017169597E+01 0.81235729631E+01
 0.91186493133E+01 0.10168732989E+02 0.11247980791E+02 0.12315155651E+02 0.13313597176E+02
 0.14193204185E+02 0.14914351322E+02 0.15448123236E+02 0.15775439962E+02 0.15885673605E+02
 0.15775439964E+02 0.15448123235E+02 0.14914351278E+02 0.14193204058E+02 0.13313597018E+02
 0.12315155649E+02 0.11247981119E+02 0.10168733584E+02 0.91186498164E+01 0.81235729691E+01
 0.72017163713E+01 0.63647780903E+01 0.56190565898E+01 0.49664030416E+01 0.44050085498E+01
 0.39301531343E+01 0.35350417152E+01 0.32117591220E+01 0.29522627589E+01 0.27492597194E+01
 0.25968152058E+01 0.24906089981E+01 0.24278678005E+01 0.24071069859E+01 0.24278677923E+01
 0.24906090008E+01 0.25968152595E+01 0.27492598482E+01 0.29522629016E+01 0.32117591171E+01
 0.35350414183E+01 0.39301526022E+01 0.44050080975E+01 0.49664030467E+01 0.56190571669E+01
 0.64177158197E+01 0.73097110225E+01 0.82862046813E+01 0.93318526878E+01 0.10423770499E+02
 0.11530830988E+02 0.12612343403E+02 0.13613296581E+02 0.14479864909E+02 0.15168032331E+02
 0.15644830518E+02 0.15888573996E+02 0.15888573964E+02 0.15644830466E+02 0.15168032320E+02
 0.14479864896E+02 0.13613296432E+02 0.12612343067E+02 0.11530830653E+02 0.10423770499E+02
 0.93318531999E+01 0.82862054914E+01 0.73097116253E+01 0.64177158076E+01 0.56190565898E+01
 0.49171375728E+01 0.43109387203E+01 0.37960044054E+01 0.33654682192E+01 0.30111177955E+01
 0.27244266044E+01 0.24974362919E+01 0.23233834871E+01 0.21970205737E+01 0.21146562542E+01
 0.20740099648E+01 0.20740099634E+01 0.21146562620E+01 0.21970206099E+01 0.23233835392E+01
 0.24974362855E+01 0.27244264413E+01 0.30111174687E+01 0.33654679070E+01 0.37960044028E+01
 0.43109391956E+01 0.49171383486E+01 0.56190571948E+01 0.65787384428E+01 0.75298373494E+01
 0.85634712980E+01 0.96597345682E+01 0.10790266162E+02 0.11918107325E+02 0.12998602107E+02
 0.13980219265E+02 0.14807515634E+02 0.15433404987E+02 0.15823104946E+02 0.15955380802E+02
 0.15823104894E+02 0.15433404978E+02 0.14807515748E+02 0.13980219439E+02 0.12998602131E+02
 0.11918107013E+02 0.10790265573E+02 0.96597340579E+01 0.85634712731E+01 0.75298379188E+01
 0.65787392805E+01 0.57223941545E+01 0.49664030416E+01 0.43109387203E+01 0.37519966741E+01
 0.32826775755E+01 0.28944465637E+01 0.25782748814E+01 0.23255615574E+01 0.21287678709E+01
 0.19817582525E+01 0.18799002817E+01 0.18200120221E+01 0.18002499697E+01 0.18200120248E+01
 0.18799002920E+01 0.19817582549E+01 0.21287678203E+01 0.23255614240E+01 0.25782747282E+01
 0.28944465594E+01 0.32826778706E+01 0.37519972103E+01 0.43109391750E+01 0.49664030325E+01
 0.57223935734E+01 0.68540262904E+01 0.78694358690E+01 0.89631044536E+01 0.10109655991E+02
 0.11274633991E+02 0.12415104357E+02 0.13481477280E+02 0.14420729628E+02 0.15180836913E+02
 0.15715672551E+02 0.15991715629E+02 0.15991715612E+02 0.15715672522E+02 0.15180836948E+02
 0.14420729828E+02 0.13481477652E+02 0.12415104706E+02 0.11274633991E+02 0.10109655466E+02
 0.89631036167E+01 0.78694352389E+01 0.68540262925E+01 0.59334674274E+01 0.51164485192E+01
 0.44050085498E+01 0.37960044054E+01 0.32826775755E+01 0.28561831071E+01 0.25069332498E+01
 0.22256345377E+01 0.20039654228E+01 0.18349256532E+01 0.17129519676E+01 0.16339135368E+01
 0.15950758340E+01 0.15950758339E+01 0.16339135365E+01 0.17129519609E+01 0.18349256256E+01
 0.20039653800E+01 0.22256345419E+01 0.25069333979E+01 0.28561834188E+01 0.32826778852E+01
 0.37960044147E+01 0.44050080750E+01 0.51164477320E+01 0.59334668131E+01 0.72525083354E+01
 0.83375024747E+01 0.94933347960E+01 0.10688441461E+02 0.11881986947E+02 0.13025323051E+02
 0.14064745755E+02 0.14945550036E+02 0.15617071874E+02 0.16038066282E+02 0.16181531669E+02
 0.16038066300E+02 0.15617071829E+02 0.14945549928E+02 0.14064745755E+02 0.13025323352E+02
 0.11881987507E+02 0.10688441938E+02 0.94933347959E+01 0.83375019037E+01 0.72525075198E+01
 0.62602915496E+01 0.53736739843E+01 0.45974891393E+01 0.39301531343E+01 0.33654682192E+01
 0.28944465637E+01 0.25069332498E+01 0.21928559451E+01 0.19430272443E+01 0.17495419914E+01
 0.16058994784E+01 0.15070055878E+01 0.14491706275E+01 0.14301449498E+01 0.14491706231E+01
 0.15070055786E+01 0.16058994665E+01 0.17495419952E+01 0.19430273039E+01 0.21928560825E+01
 0.25069333987E+01 0.28944465602E+01 0.33654679239E+01 0.39301526097E+01 0.45974886966E+01
 0.53736739878E+01 0.62602921061E+01 0.77843222375E+01 0.89431485538E+01 0.10161595076E+02
 0.11401522066E+02 0.12615810597E+02 0.13750697377E+02 0.14749403027E+02 0.15556881665E+02
 0.16125210336E+02 0.16418847579E+02 0.16418847636E+02 0.16125210400E+02 0.15556881530E+02
 0.14749402645E+02 0.13750696977E+02 0.12615810548E+02 0.11401522557E+02 0.10161595897E+02
 0.89431491998E+01 0.77843222781E+01 0.67131788050E+01 0.57476773369E+01 0.48965109301E+01
 0.41606057977E+01 0.35350417152E+01 0.30111177955E+01 0.25782748814E+01 0.22256345377E+01
 0.19430272443E+01 0.17215254330E+01 0.15536175774E+01 0.14332121004E+01 0.13556302772E+01
 0.13176612657E+01 0.13176612644E+01 0.13556302720E+01 0.14332120915E+01 0.15536175763E+01
 0.17215254615E+01 0.19430272995E+01 0.22256345475E+01 0.25782747336E+01 0.30111174703E+01
 0.35350414007E+01 0.41606058097E+01 0.48965114348E+01 0.57476781260E+01 0.67131793836E+01
 0.84596170929E+01 0.96948442691E+01 0.10974403135E+02 0.12253521617E+02 0.13479158559E+02
 0.14593180532E+02 0.15536785628E+02 0.16255835049E+02 0.16706446159E+02 0.16859970490E+02
 0.16706446276E+02 0.16255835179E+02 0.15536785586E+02 0.14593180176E+02 0.13479157967E+02
 0.12253521134E+02 0.10974403146E+02 0.96948448616E+01 0.84596179284E+01 0.73033674799E+01
 0.62499799718E+01 0.53130069651E+01 0.44969396500E+01 0.37990870602E+01 0.32117591220E+01
 0.27244266044E+01 0.23255615574E+01 0.20039654228E+01 0.17495419914E+01 0.15536175774E+01
 0.14089986888E+01 0.13099596316E+01 0.12522798355E+01 0.12333487358E+01 0.12522798435E+01
 0.13099596371E+01 0.14089986886E+01 0.15536175786E+01 0.17495419858E+01 0.20039653699E+01
 0.23255614259E+01 0.27244264516E+01 0.32117591122E+01 0.37990873455E+01 0.44969401814E+01
 0.53130074300E+01 0.62499799870E+01 0.73033669214E+01 0.92883999810E+01 0.10601041200E+02
 0.11938748861E+02 0.13250214489E+02 0.14476866190E+02 0.15556881167E+02 0.16430383500E+02
 0.17045298037E+02 0.17363035279E+02 0.17363035296E+02 0.17045298162E+02 0.16430383816E+02
 0.15556881530E+02 0.14476866257E+02 0.13250214035E+02 0.11938748066E+02 0.10601040565E+02
 0.92883999328E+01 0.80422570149E+01 0.68929253674E+01 0.58595769561E+01 0.49512144485E+01
 0.41683836486E+01 0.35053288064E+01 0.29522627589E+01 0.24974362919E+01 0.21287678709E+01
 0.18349256532E+01 0.16058994784E+01 0.14332121004E+01 0.13099596316E+01 0.12308347867E+01
 0.11922012133E+01 0.11922012212E+01 0.12308348017E+01 0.13099596416E+01 0.14332121040E+01
 0.16058994715E+01 0.18349256179E+01 0.21287678121E+01 0.24974362837E+01 0.29522629074E+01
 0.35053291180E+01 0.41683839353E+01 0.49512144185E+01 0.58595764650E+01 0.68929246145E+01
 0.80422564660E+01 0.10281699084E+02 0.11671990977E+02 0.13064231366E+02 0.14400548977E+02
 0.15617071188E+02 0.16648856186E+02 0.17435900892E+02 0.17929383083E+02 0.18097506694E+02
 0.17929382959E+02 0.17435900895E+02 0.16648856545E+02 0.15617071829E+02 0.14400549507E+02
 0.13064231367E+02 0.11671990367E+02 0.10281698219E+02 0.89417798679E+01 0.76893347691E+01
 0.65496741127E+01 0.55370056307E+01 0.46559573948E+01 0.39036241195E+01 0.32718221720E+01
 0.27492597194E+01 0.23233834871E+01 0.19817582525E+01 0.17129519676E+01 0.15070055878E+01
 0.13556302772E+01 0.12522798355E+01 0.11922012133E+01 0.11724995840E+01 0.11922012117E+01
 0.12522798355E+01 0.13556302814E+01 0.15070055919E+01 0.17129519640E+01 0.19817582539E+01
 0.23233835385E+01 0.27492598531E+01 0.32718223247E+01 0.39036241167E+01 0.46559570832E+01
 0.55370050741E+01 0.65496736425E+01 0.76893347723E+01 0.89417804572E+01 0.11453297378E+02
 0.12921329755E+02 0.14363944535E+02 0.15715672041E+02 0.16902521032E+02 0.17856048294E+02
 0.18522352614E+02 0.18864734947E+02 0.18864734798E+02 0.18522352251E+02 0.17856047962E+02
 0.16902521033E+02 0.15715672522E+02 0.14363945304E+02 0.12921330344E+02 0.11453297387E+02
 0.10015775926E+02 0.86532113221E+01 0.73975853179E+01 0.62688359733E+01 0.52762632724E+01
 0.44205122490E+01 0.36957862913E+01 0.30920198678E+01 0.25968152058E+01 0.21970205737E+01
 0.18799002817E+01 0.16339135368E+01 0.14491706275E+01 0.13176612657E+01 0.12333487358E+01
 0.11922012212E+01 0.11922012117E+01 0.12333487174E+01 0.13176612553E+01 0.14491706286E+01
 0.16339135407E+01 0.18799002907E+01 0.21970206066E+01 0.25968152610E+01 0.30920198780E+01
 0.36957861524E+01 0.44205119421E+01 0.52762629697E+01 0.62688359704E+01 0.73975857821E+01