   2   2   0   0
  0.2234237E+02  0.3983133E-09  0.3983133E-09  0.3983133E-09  0.5000000E-15
  1.000000000000000E-004
  CAR 
 unknown system                          
     63.38207367    -12.40489341  301      3.73223640      1.00000000
    -12.405  0.0000E+00  0.0000E+00
    -12.152  0.0000E+00  0.0000E+00
    -11.900  0.0000E+00  0.0000E+00
    -11.647  0.0000E+00  0.0000E+00
    -11.394  0.0000E+00  0.0000E+00
    -11.142  0.0000E+00  0.0000E+00
    -10.889  0.0000E+00  0.0000E+00
    -10.637  0.0000E+00  0.0000E+00
    -10.384  0.0000E+00  0.0000E+00
    -10.131  0.0000E+00  0.0000E+00
     -9.879  0.0000E+00  0.0000E+00
     -9.626  0.0000E+00  0.0000E+00
     -9.373 -0.1762E-30 -0.4451E-31
     -9.121 -0.9772E-06 -0.2469E-06
     -8.868  0.3713E-01  0.9380E-02
     -8.616  0.1865E+00  0.5648E-01
     -8.363  0.3262E+00  0.1389E+00
     -8.110  0.2568E-01  0.1454E+00
     -7.858  0.4094E+00  0.2488E+00
     -7.605  0.1183E+01  0.5478E+00
     -7.352 -0.5797E-02  0.5463E+00
     -7.100  0.2024E+00  0.5974E+00
     -6.847  0.1273E+01  0.9189E+00
     -6.595  0.1543E+01  0.1309E+01
     -6.342 -0.1246E-01  0.1306E+01
     -6.089  0.6439E+00  0.1468E+01
     -5.837  0.1557E+01  0.1862E+01
     -5.584 -0.1858E-02  0.1861E+01
     -5.331 -0.1711E-12  0.1861E+01
     -5.079  0.5080E-01  0.1874E+01
     -4.826  0.1049E+01  0.2139E+01
     -4.574 -0.1873E-46  0.2139E+01
     -4.321 -0.4022E-12  0.2139E+01
     -4.068  0.2070E+00  0.2191E+01
     -3.816  0.2146E+01  0.2733E+01
     -3.563  0.9020E+00  0.2961E+01
     -3.310 -0.2982E-01  0.2954E+01
     -3.058  0.6489E+00  0.3118E+01
     -2.805  0.1111E+01  0.3398E+01
     -2.553 -0.5340E-03  0.3398E+01
     -2.300  0.4300E+00  0.3507E+01
     -2.047  0.8318E-01  0.3528E+01
     -1.795 -0.2872E-06  0.3528E+01
     -1.542  0.9106E+00  0.3758E+01
     -1.289 -0.3097E-01  0.3750E+01
     -1.037 -0.6617E-04  0.3750E+01
     -0.784  0.7808E+00  0.3947E+01
     -0.532  0.7840E-01  0.3967E+01
     -0.279  0.9002E+00  0.4194E+01
     -0.026  0.2334E+01  0.4784E+01
      0.226  0.3050E+00  0.4861E+01
      0.479  0.8733E+00  0.5082E+01
      0.732  0.1614E+01  0.5489E+01
      0.984  0.1757E+01  0.5933E+01
      1.237  0.1577E+01  0.6331E+01
      1.489  0.1530E+01  0.6718E+01
      1.742  0.1087E+01  0.6992E+01
      1.995  0.6529E+00  0.7157E+01
      2.247  0.1011E+01  0.7413E+01
      2.500  0.8945E+00  0.7639E+01
      2.753  0.2932E+00  0.7713E+01
      3.005  0.3859E+00  0.7810E+01
      3.258  0.6453E+00  0.7973E+01
      3.510 -0.4933E-02  0.7972E+01
      3.763  0.1132E+00  0.8001E+01
      4.016 -0.6486E-02  0.7999E+01
      4.268  0.1790E+00  0.8044E+01
      4.521  0.5230E+00  0.8177E+01
      4.773  0.1986E+00  0.8227E+01
      5.026  0.1192E+01  0.8528E+01
      5.279  0.3113E+00  0.8606E+01
      5.531  0.1214E+01  0.8913E+01
      5.784  0.1997E+01  0.9418E+01
      6.037  0.4361E+00  0.9528E+01
      6.289  0.6115E-01  0.9543E+01
      6.542  0.1756E+01  0.9987E+01
      6.794  0.1121E+01  0.1027E+02
      7.047  0.3031E+01  0.1104E+02
      7.300  0.4025E+00  0.1114E+02
      7.552  0.1927E+01  0.1162E+02
      7.805  0.1397E+01  0.1198E+02
      8.058  0.1186E+01  0.1228E+02
      8.310  0.2210E+01  0.1283E+02
      8.563 -0.6329E-02  0.1283E+02
      8.815  0.1810E+01  0.1329E+02
      9.068  0.1180E+01  0.1359E+02
      9.321  0.8885E-01  0.1361E+02
      9.573  0.2393E+00  0.1367E+02
      9.826  0.1426E+00  0.1371E+02
     10.079  0.1816E+01  0.1417E+02
     10.331  0.1761E+01  0.1461E+02
     10.584  0.1684E+01  0.1504E+02
     10.836  0.1035E+01  0.1530E+02
     11.089  0.2253E+01  0.1587E+02
     11.342  0.5562E+00  0.1601E+02
     11.594  0.8840E+00  0.1623E+02
     11.847  0.8318E+00  0.1644E+02
     12.100  0.7609E+00  0.1663E+02
     12.352  0.2545E+01  0.1728E+02
     12.605  0.1109E+00  0.1730E+02
     12.857  0.1024E+01  0.1756E+02
     13.110  0.2597E+01  0.1822E+02
     13.363  0.1224E+01  0.1853E+02
     13.615  0.8916E+00  0.1875E+02
     13.868  0.1310E+01  0.1908E+02
     14.121  0.9362E+00  0.1932E+02
     14.373  0.9025E+00  0.1955E+02
     14.626  0.2002E+00  0.1960E+02
     14.878  0.1903E+01  0.2008E+02
     15.131  0.2325E+01  0.2067E+02
     15.384  0.4870E+00  0.2079E+02
     15.636  0.3085E+01  0.2157E+02
     15.889  0.2594E+01  0.2223E+02
     16.142  0.7108E+00  0.2241E+02
     16.394  0.1609E+01  0.2281E+02
     16.647  0.2651E+01  0.2348E+02
     16.899  0.1216E+01  0.2379E+02
     17.152  0.1570E+01  0.2419E+02
     17.405  0.1302E+01  0.2451E+02
     17.657  0.1102E+01  0.2479E+02
     17.910  0.1372E+01  0.2514E+02
     18.163 -0.3004E-01  0.2513E+02
     18.415  0.2239E+01  0.2570E+02
     18.668 -0.1022E-01  0.2569E+02
     18.920  0.2219E+00  0.2575E+02
     19.173 -0.1754E-01  0.2575E+02
     19.426  0.2212E+01  0.2630E+02
     19.678  0.1453E+01  0.2667E+02
     19.931  0.1849E+01  0.2714E+02
     20.184  0.5785E+01  0.2860E+02
     20.436  0.1031E+01  0.2886E+02
     20.689  0.1828E+01  0.2932E+02
     20.941  0.1920E+01  0.2981E+02
     21.194  0.9660E+00  0.3005E+02
     21.447  0.1721E+01  0.3049E+02
     21.699  0.2067E+01  0.3101E+02
     21.952  0.1777E+01  0.3146E+02
     22.204  0.2286E+01  0.3204E+02
     22.457  0.1289E+01  0.3236E+02
     22.710  0.1472E+01  0.3273E+02
     22.962  0.6608E+00  0.3290E+02
     23.215  0.8491E+00  0.3311E+02
     23.468  0.9045E+00  0.3334E+02
     23.720  0.1855E+01  0.3381E+02
     23.973  0.1549E+01  0.3420E+02
     24.225  0.2487E+01  0.3483E+02
     24.478  0.4271E+00  0.3494E+02
     24.731  0.2700E+01  0.3562E+02
     24.983  0.1023E+01  0.3588E+02
     25.236  0.3591E+01  0.3679E+02
     25.489  0.1833E+01  0.3725E+02
     25.741  0.2959E+01  0.3800E+02
     25.994  0.2668E+01  0.3867E+02
     26.246  0.1937E+01  0.3916E+02
     26.499  0.3995E+01  0.4017E+02
     26.752  0.1115E+01  0.4045E+02
     27.004  0.2540E+01  0.4109E+02
     27.257  0.3709E+00  0.4119E+02
     27.510  0.7255E+00  0.4137E+02
     27.762  0.1799E+01  0.4182E+02
     28.015  0.1773E+01  0.4227E+02
     28.267  0.7446E+00  0.4246E+02
     28.520  0.4165E+00  0.4257E+02
     28.773  0.1563E+01  0.4296E+02
     29.025  0.1858E+01  0.4343E+02
     29.278  0.2337E+01  0.4402E+02
     29.531  0.2752E+01  0.4472E+02
     29.783  0.1086E+01  0.4499E+02
     30.036  0.8694E+00  0.4521E+02
     30.288  0.3113E+01  0.4600E+02
     30.541  0.2312E+01  0.4658E+02
     30.794  0.4037E+01  0.4760E+02
     31.046  0.2250E+01  0.4817E+02
     31.299  0.1605E+01  0.4857E+02
     31.552  0.4355E+01  0.4967E+02
     31.804  0.2471E+01  0.5030E+02
     32.057  0.1899E+01  0.5078E+02
     32.309  0.2413E+01  0.5139E+02
     32.562  0.1764E+01  0.5183E+02
     32.815  0.5477E+00  0.5197E+02
     33.067  0.2681E+01  0.5265E+02
     33.320  0.9582E+00  0.5289E+02
     33.573  0.3418E+01  0.5375E+02
     33.825  0.2442E+00  0.5382E+02
     34.078  0.1912E+01  0.5430E+02
     34.330  0.8999E+00  0.5453E+02
     34.583  0.8511E+00  0.5474E+02
     34.836  0.2577E+01  0.5539E+02
     35.088  0.3342E+01  0.5624E+02
     35.341  0.1212E+01  0.5654E+02
     35.594  0.1297E+01  0.5687E+02
     35.846  0.3053E+01  0.5764E+02
     36.099  0.2637E+01  0.5831E+02
     36.351  0.3159E+01  0.5911E+02
     36.604  0.4438E+01  0.6023E+02
     36.857  0.2031E+01  0.6074E+02
     37.109  0.6028E+00  0.6089E+02
     37.362  0.1507E+01  0.6127E+02
     37.615  0.1847E+01  0.6174E+02
     37.867  0.1808E+01  0.6220E+02
     38.120  0.2137E+01  0.6274E+02
     38.372  0.2816E+01  0.6345E+02
     38.625  0.3366E+01  0.6430E+02
     38.878  0.2814E+01  0.6501E+02
     39.130  0.2207E+01  0.6557E+02
     39.383  0.1365E+01  0.6591E+02
     39.635  0.2185E+01  0.6646E+02
     39.888  0.2255E+01  0.6703E+02
     40.141  0.2973E+01  0.6778E+02
     40.393  0.1206E+01  0.6809E+02
     40.646  0.1384E+01  0.6844E+02
     40.899  0.1654E+01  0.6886E+02
     41.151 -0.1558E-01  0.6885E+02
     41.404  0.1146E+01  0.6914E+02
     41.656  0.2928E+01  0.6988E+02
     41.909  0.3701E+01  0.7082E+02
     42.162  0.4066E+01  0.7184E+02
     42.414  0.8136E+00  0.7205E+02
     42.667  0.2993E+01  0.7280E+02
     42.920  0.2810E+01  0.7351E+02
     43.172  0.2773E+01  0.7421E+02
     43.425  0.1518E+01  0.7460E+02
     43.677  0.2469E+01  0.7522E+02
     43.930  0.2944E+01  0.7597E+02
     44.183  0.8442E-01  0.7599E+02
     44.435  0.4163E+01  0.7704E+02
     44.688  0.3029E+01  0.7780E+02
     44.941  0.3628E+01  0.7872E+02
     45.193  0.2301E+01  0.7930E+02
     45.446  0.5739E+00  0.7945E+02
     45.698  0.2721E+01  0.8013E+02
     45.951  0.2890E+01  0.8086E+02
     46.204  0.1548E+01  0.8126E+02
     46.456  0.3381E+01  0.8211E+02
     46.709  0.8141E+00  0.8231E+02
     46.962  0.6308E+00  0.8247E+02
     47.214  0.3318E+01  0.8331E+02
     47.467  0.9835E+00  0.8356E+02
     47.719  0.1389E+01  0.8391E+02
     47.972  0.3194E+01  0.8472E+02
     48.225  0.2629E+01  0.8538E+02
     48.477  0.3642E+01  0.8630E+02
     48.730  0.2275E+01  0.8688E+02
     48.983  0.2440E+01  0.8749E+02
     49.235  0.3980E+01  0.8850E+02
     49.488  0.4659E+00  0.8862E+02
     49.740  0.3049E+01  0.8939E+02
     49.993  0.4290E+01  0.9047E+02
     50.246  0.5239E+00  0.9060E+02
     50.498  0.1859E+01  0.9107E+02
     50.751  0.3295E+01  0.9191E+02
     51.004  0.2196E+01  0.9246E+02
     51.256  0.3752E+01  0.9341E+02
     51.509  0.2450E+01  0.9403E+02
     51.761  0.3019E+01  0.9479E+02
     52.014  0.1193E+00  0.9482E+02
     52.267  0.9715E+00  0.9507E+02
     52.519  0.4368E+01  0.9617E+02
     52.772  0.1297E+01  0.9650E+02
     53.025  0.2109E+01  0.9703E+02
     53.277  0.4316E+01  0.9812E+02
     53.530  0.9101E+00  0.9835E+02
     53.782  0.2417E+01  0.9896E+02
     54.035  0.2370E+01  0.9956E+02
     54.288  0.1648E+01  0.9997E+02
     54.540  0.2613E+01  0.1006E+03
     54.793  0.2206E+01  0.1012E+03
     55.046  0.1008E+01  0.1014E+03
     55.298  0.9365E+00  0.1017E+03
     55.551  0.3820E+01  0.1026E+03
     55.803  0.2202E+01  0.1032E+03
     56.056  0.2819E+01  0.1039E+03
     56.309  0.3276E+01  0.1047E+03
     56.561  0.3374E+01  0.1056E+03
     56.814  0.9661E+00  0.1058E+03
     57.066  0.1947E+01  0.1063E+03
     57.319  0.4832E+01  0.1076E+03
     57.572  0.1948E+01  0.1080E+03
     57.824  0.3491E+01  0.1089E+03
     58.077  0.1398E+01  0.1093E+03
     58.330  0.4300E+01  0.1104E+03
     58.582  0.1828E+01  0.1108E+03
     58.835  0.8703E+00  0.1110E+03
     59.087  0.1004E+01  0.1113E+03
     59.340  0.7965E+00  0.1115E+03
     59.593  0.1746E+01  0.1119E+03
     59.845 -0.2868E-02  0.1119E+03
     60.098  0.2228E+00  0.1120E+03
     60.351  0.0000E+00  0.1120E+03
     60.603  0.0000E+00  0.1120E+03
     60.856  0.0000E+00  0.1120E+03
     61.108  0.0000E+00  0.1120E+03
     61.361  0.0000E+00  0.1120E+03
     61.614  0.0000E+00  0.1120E+03
     61.866  0.0000E+00  0.1120E+03
     62.119  0.0000E+00  0.1120E+03
     62.372  0.0000E+00  0.1120E+03
     62.624  0.0000E+00  0.1120E+03
     62.877  0.0000E+00  0.1120E+03
     63.129  0.0000E+00  0.1120E+03
     63.382  0.0000E+00  0.1120E+03
