   2   2   0   0
  0.2234237E+02  0.3983133E-09  0.3983133E-09  0.3983133E-09  0.5000000E-15
  1.000000000000000E-004
  CAR 
 unknown system                          
     63.08373897    -12.37298815  301      3.58473216      1.00000000
    -12.373  0.0000E+00  0.0000E+00  0.0000E+00  0.0000E+00
    -12.121  0.0000E+00  0.0000E+00  0.0000E+00  0.0000E+00
    -11.870  0.0000E+00  0.0000E+00  0.0000E+00  0.0000E+00
    -11.618  0.0000E+00  0.0000E+00  0.0000E+00  0.0000E+00
    -11.367  0.0000E+00  0.0000E+00  0.0000E+00  0.0000E+00
    -11.115  0.0000E+00  0.0000E+00  0.0000E+00  0.0000E+00
    -10.864  0.0000E+00  0.0000E+00  0.0000E+00  0.0000E+00
    -10.612  0.0000E+00  0.0000E+00  0.0000E+00  0.0000E+00
    -10.361  0.0000E+00  0.0000E+00  0.0000E+00  0.0000E+00
    -10.109  0.0000E+00  0.0000E+00  0.0000E+00  0.0000E+00
     -9.858  0.0000E+00  0.0000E+00  0.0000E+00  0.0000E+00
     -9.606  0.0000E+00  0.0000E+00  0.0000E+00  0.0000E+00
     -9.355 -0.1596E-30 -0.1596E-30 -0.4015E-31 -0.4014E-31
     -9.103 -0.5341E-06 -0.5340E-06 -0.1343E-06 -0.1343E-06
     -8.852  0.1865E-01  0.1865E-01  0.4691E-02  0.4691E-02
     -8.600  0.9634E-01  0.9634E-01  0.2892E-01  0.2892E-01
     -8.349  0.1611E+00  0.1611E+00  0.6945E-01  0.6945E-01
     -8.097  0.1865E-01  0.1865E-01  0.7414E-01  0.7414E-01
     -7.846  0.1990E+00  0.1990E+00  0.1242E+00  0.1242E+00
     -7.594  0.5948E+00  0.5948E+00  0.2738E+00  0.2738E+00
     -7.343 -0.2524E-02 -0.2524E-02  0.2731E+00  0.2731E+00
     -7.091  0.9944E-01  0.9944E-01  0.2982E+00  0.2982E+00
     -6.839  0.6832E+00  0.6832E+00  0.4700E+00  0.4700E+00
     -6.588  0.7322E+00  0.7322E+00  0.6542E+00  0.6542E+00
     -6.336 -0.5489E-02 -0.5489E-02  0.6528E+00  0.6528E+00
     -6.085  0.3708E+00  0.3708E+00  0.7461E+00  0.7461E+00
     -5.833  0.7342E+00  0.7342E+00  0.9307E+00  0.9307E+00
     -5.582 -0.6249E-03 -0.6249E-03  0.9306E+00  0.9306E+00
     -5.330 -0.1350E-11 -0.1350E-11  0.9306E+00  0.9306E+00
     -5.079  0.4372E-01  0.4372E-01  0.9416E+00  0.9416E+00
     -4.827  0.5085E+00  0.5085E+00  0.1069E+01  0.1069E+01
     -4.576 -0.1135E-42 -0.1134E-42  0.1069E+01  0.1069E+01
     -4.324 -0.1731E-10 -0.1731E-10  0.1069E+01  0.1069E+01
     -4.073  0.2751E+00  0.2751E+00  0.1139E+01  0.1139E+01
     -3.821  0.9202E+00  0.9203E+00  0.1370E+01  0.1370E+01
     -3.570  0.4303E+00  0.4303E+00  0.1478E+01  0.1478E+01
     -3.318 -0.5879E-02 -0.5879E-02  0.1477E+01  0.1477E+01
     -3.067  0.4475E+00  0.4475E+00  0.1589E+01  0.1589E+01
     -2.815  0.4361E+00  0.4361E+00  0.1699E+01  0.1699E+01
     -2.564 -0.4580E-06 -0.4579E-06  0.1699E+01  0.1699E+01
     -2.312  0.2651E+00  0.2651E+00  0.1766E+01  0.1766E+01
     -2.061 -0.7398E-02 -0.7398E-02  0.1764E+01  0.1764E+01
     -1.809 -0.1091E-04 -0.1090E-04  0.1764E+01  0.1764E+01
     -1.558  0.4481E+00  0.4481E+00  0.1877E+01  0.1877E+01
     -1.306 -0.6331E-02 -0.6332E-02  0.1875E+01  0.1875E+01
     -1.054 -0.7663E-03 -0.7663E-03  0.1875E+01  0.1875E+01
     -0.803  0.4439E+00  0.4439E+00  0.1986E+01  0.1986E+01
     -0.551  0.4271E+00  0.4271E+00  0.2094E+01  0.2094E+01
     -0.300  0.7402E-02  0.7404E-02  0.2096E+01  0.2096E+01
     -0.048  0.1336E+01  0.1336E+01  0.2432E+01  0.2432E+01
      0.203 -0.2040E-01 -0.2040E-01  0.2427E+01  0.2427E+01
      0.455  0.6111E+00  0.6111E+00  0.2580E+01  0.2580E+01
      0.706  0.1109E+01  0.1109E+01  0.2859E+01  0.2859E+01
      0.958  0.6458E+00  0.6458E+00  0.3022E+01  0.3022E+01
      1.209  0.7898E+00  0.7898E+00  0.3220E+01  0.3220E+01
      1.461  0.5342E+00  0.5342E+00  0.3355E+01  0.3355E+01
      1.712  0.8970E+00  0.8970E+00  0.3580E+01  0.3580E+01
      1.964 -0.1904E-01 -0.1904E-01  0.3576E+01  0.3576E+01
      2.215  0.6176E+00  0.6176E+00  0.3731E+01  0.3731E+01
      2.467  0.5001E+00  0.5001E+00  0.3857E+01  0.3857E+01
      2.718 -0.1740E-02 -0.1740E-02  0.3856E+01  0.3856E+01
      2.970  0.2184E+00  0.2184E+00  0.3911E+01  0.3911E+01
      3.221  0.2976E+00  0.2976E+00  0.3986E+01  0.3986E+01
      3.473 -0.1766E-02 -0.1766E-02  0.3986E+01  0.3986E+01
      3.724  0.5699E-01  0.5699E-01  0.4000E+01  0.4000E+01
      3.976 -0.2934E-03 -0.2935E-03  0.4000E+01  0.4000E+01
      4.227  0.8790E-01  0.8790E-01  0.4022E+01  0.4022E+01
      4.479  0.2611E+00  0.2611E+00  0.4088E+01  0.4088E+01
      4.731  0.1055E+00  0.1055E+00  0.4114E+01  0.4114E+01
      4.982  0.5949E+00  0.5949E+00  0.4264E+01  0.4264E+01
      5.234  0.1174E+00  0.1174E+00  0.4293E+01  0.4293E+01
      5.485  0.6771E+00  0.6771E+00  0.4464E+01  0.4464E+01
      5.737  0.1005E+01  0.1005E+01  0.4716E+01  0.4716E+01
      5.988  0.1888E+00  0.1888E+00  0.4764E+01  0.4764E+01
      6.240  0.5697E-01  0.5697E-01  0.4778E+01  0.4778E+01
      6.491  0.9037E+00  0.9037E+00  0.5006E+01  0.5006E+01
      6.743  0.5209E+00  0.5209E+00  0.5137E+01  0.5137E+01
      6.994  0.1587E+01  0.1587E+01  0.5536E+01  0.5536E+01
      7.246  0.2603E+00  0.2603E+00  0.5601E+01  0.5601E+01
      7.497  0.1052E+01  0.1052E+01  0.5866E+01  0.5866E+01
      7.749  0.5003E+00  0.5003E+00  0.5992E+01  0.5992E+01
      8.000  0.5824E+00  0.5824E+00  0.6138E+01  0.6138E+01
      8.252  0.1108E+01  0.1108E+01  0.6417E+01  0.6417E+01
      8.503 -0.3854E-03 -0.3854E-03  0.6417E+01  0.6417E+01
      8.755  0.9040E+00  0.9040E+00  0.6644E+01  0.6644E+01
      9.006  0.6571E+00  0.6571E+00  0.6809E+01  0.6809E+01
      9.258 -0.1496E-01 -0.1496E-01  0.6806E+01  0.6806E+01
      9.509  0.1915E+00  0.1915E+00  0.6854E+01  0.6854E+01
      9.761  0.3642E-01  0.3642E-01  0.6863E+01  0.6863E+01
     10.013  0.8712E+00  0.8712E+00  0.7082E+01  0.7082E+01
     10.264  0.9242E+00  0.9242E+00  0.7314E+01  0.7314E+01
     10.516  0.8668E+00  0.8668E+00  0.7532E+01  0.7532E+01
     10.767  0.9614E+00  0.9614E+00  0.7774E+01  0.7774E+01
     11.019  0.7068E+00  0.7068E+00  0.7952E+01  0.7952E+01
     11.270  0.3438E+00  0.3438E+00  0.8039E+01  0.8039E+01
     11.522  0.3068E+00  0.3068E+00  0.8116E+01  0.8116E+01
     11.773  0.2620E+00  0.2620E+00  0.8182E+01  0.8182E+01
     12.025  0.4688E+00  0.4688E+00  0.8300E+01  0.8300E+01
     12.276  0.1198E+01  0.1198E+01  0.8601E+01  0.8601E+01
     12.528  0.2058E+00  0.2058E+00  0.8653E+01  0.8653E+01
     12.779  0.5230E+00  0.5230E+00  0.8784E+01  0.8784E+01
     13.031  0.8060E+00  0.8060E+00  0.8987E+01  0.8987E+01
     13.282  0.1104E+01  0.1104E+01  0.9265E+01  0.9265E+01
     13.534  0.2262E+00  0.2262E+00  0.9322E+01  0.9322E+01
     13.785  0.7599E+00  0.7599E+00  0.9513E+01  0.9513E+01
     14.037  0.5273E+00  0.5273E+00  0.9645E+01  0.9645E+01
     14.288  0.5072E+00  0.5072E+00  0.9773E+01  0.9773E+01
     14.540  0.7251E-01  0.7251E-01  0.9791E+01  0.9791E+01
     14.791  0.4755E+00  0.4756E+00  0.9911E+01  0.9911E+01
     15.043  0.1612E+01  0.1612E+01  0.1032E+02  0.1032E+02
     15.294  0.5067E-01  0.5067E-01  0.1033E+02  0.1033E+02
     15.546  0.1138E+01  0.1138E+01  0.1062E+02  0.1062E+02
     15.798  0.1743E+01  0.1743E+01  0.1105E+02  0.1105E+02
     16.049  0.4626E+00  0.4626E+00  0.1117E+02  0.1117E+02
     16.301  0.7128E+00  0.7128E+00  0.1135E+02  0.1135E+02
     16.552  0.1114E+01  0.1114E+01  0.1163E+02  0.1163E+02
     16.804  0.8771E+00  0.8771E+00  0.1185E+02  0.1185E+02
     17.055  0.9693E+00  0.9693E+00  0.1209E+02  0.1209E+02
     17.307  0.3754E+00  0.3754E+00  0.1219E+02  0.1219E+02
     17.558  0.7802E+00  0.7802E+00  0.1238E+02  0.1238E+02
     17.810  0.7483E+00  0.7483E+00  0.1257E+02  0.1257E+02
     18.061 -0.1248E-01 -0.1248E-01  0.1257E+02  0.1257E+02
     18.313  0.8560E+00  0.8560E+00  0.1278E+02  0.1278E+02
     18.564  0.2484E+00  0.2484E+00  0.1285E+02  0.1285E+02
     18.816  0.2619E-01  0.2618E-01  0.1285E+02  0.1285E+02
     19.067  0.8411E-01  0.8412E-01  0.1287E+02  0.1287E+02
     19.319  0.4605E+00  0.4605E+00  0.1299E+02  0.1299E+02
     19.570  0.1151E+01  0.1151E+01  0.1328E+02  0.1328E+02
     19.822  0.1036E+01  0.1036E+01  0.1354E+02  0.1354E+02
     20.073  0.2858E+01  0.2858E+01  0.1426E+02  0.1426E+02
     20.325  0.2219E+00  0.2219E+00  0.1432E+02  0.1432E+02
     20.576  0.1059E+01  0.1059E+01  0.1458E+02  0.1458E+02
     20.828  0.7546E+00  0.7546E+00  0.1477E+02  0.1477E+02
     21.079  0.8058E+00  0.8058E+00  0.1497E+02  0.1497E+02
     21.331  0.7002E+00  0.7002E+00  0.1515E+02  0.1515E+02
     21.583  0.4230E+00  0.4230E+00  0.1526E+02  0.1526E+02
     21.834  0.1357E+01  0.1357E+01  0.1560E+02  0.1560E+02
     22.086  0.1279E+01  0.1278E+01  0.1592E+02  0.1592E+02
     22.337  0.9238E+00  0.9238E+00  0.1615E+02  0.1615E+02
     22.589  0.8038E+00  0.8038E+00  0.1635E+02  0.1635E+02
     22.840  0.4872E-01  0.4872E-01  0.1637E+02  0.1637E+02
     23.092  0.7379E+00  0.7379E+00  0.1655E+02  0.1655E+02
     23.343  0.4847E+00  0.4847E+00  0.1667E+02  0.1667E+02
     23.595  0.1782E+00  0.1782E+00  0.1672E+02  0.1672E+02
     23.846  0.1010E+01  0.1010E+01  0.1697E+02  0.1697E+02
     24.098  0.1086E+01  0.1086E+01  0.1725E+02  0.1725E+02
     24.349  0.9217E+00  0.9217E+00  0.1748E+02  0.1748E+02
     24.601  0.1082E+01  0.1082E+01  0.1775E+02  0.1775E+02
     24.852  0.5500E+00  0.5500E+00  0.1789E+02  0.1789E+02
     25.104  0.1913E+01  0.1913E+01  0.1837E+02  0.1837E+02
     25.355  0.3364E+00  0.3364E+00  0.1845E+02  0.1845E+02
     25.607  0.1558E+01  0.1558E+01  0.1885E+02  0.1885E+02
     25.858  0.7608E+00  0.7608E+00  0.1904E+02  0.1904E+02
     26.110  0.1211E+01  0.1211E+01  0.1934E+02  0.1934E+02
     26.361  0.1605E+01  0.1605E+01  0.1975E+02  0.1975E+02
     26.613  0.1530E+01  0.1530E+01  0.2013E+02  0.2013E+02
     26.865  0.7736E+00  0.7736E+00  0.2033E+02  0.2033E+02
     27.116  0.8979E+00  0.8979E+00  0.2055E+02  0.2055E+02
     27.368  0.4450E+00  0.4450E+00  0.2066E+02  0.2066E+02
     27.619  0.8856E+00  0.8856E+00  0.2089E+02  0.2089E+02
     27.871  0.9724E-01  0.9724E-01  0.2091E+02  0.2091E+02
     28.122  0.8913E+00  0.8913E+00  0.2113E+02  0.2113E+02
     28.374  0.6106E+00  0.6106E+00  0.2129E+02  0.2129E+02
     28.625  0.5972E+00  0.5972E+00  0.2144E+02  0.2144E+02
     28.877  0.6732E+00  0.6732E+00  0.2161E+02  0.2161E+02
     29.128  0.1596E+01  0.1596E+01  0.2201E+02  0.2201E+02
     29.380  0.6095E+00  0.6095E+00  0.2216E+02  0.2216E+02
     29.631  0.1024E+01  0.1024E+01  0.2242E+02  0.2242E+02
     29.883  0.4451E+00  0.4451E+00  0.2253E+02  0.2253E+02
     30.134  0.8951E+00  0.8951E+00  0.2276E+02  0.2276E+02
     30.386  0.1470E+01  0.1470E+01  0.2313E+02  0.2313E+02
     30.637  0.1894E+01  0.1894E+01  0.2360E+02  0.2360E+02
     30.889  0.1122E+01  0.1122E+01  0.2389E+02  0.2389E+02
     31.140  0.8182E+00  0.8182E+00  0.2409E+02  0.2409E+02
     31.392  0.1163E+01  0.1163E+01  0.2438E+02  0.2438E+02
     31.643  0.1765E+01  0.1765E+01  0.2483E+02  0.2483E+02
     31.895  0.2252E+01  0.2252E+01  0.2539E+02  0.2539E+02
     32.146 -0.2038E-01 -0.2037E-01  0.2539E+02  0.2539E+02
     32.398  0.1507E+01  0.1507E+01  0.2577E+02  0.2577E+02
     32.650  0.6157E+00  0.6158E+00  0.2592E+02  0.2592E+02
     32.901  0.3007E+00  0.3007E+00  0.2600E+02  0.2600E+02
     33.153  0.1338E+01  0.1338E+01  0.2633E+02  0.2633E+02
     33.404  0.1250E+01  0.1250E+01  0.2665E+02  0.2665E+02
     33.656  0.8794E+00  0.8794E+00  0.2687E+02  0.2687E+02
     33.907  0.2097E+00  0.2097E+00  0.2692E+02  0.2692E+02
     34.159  0.8940E+00  0.8940E+00  0.2715E+02  0.2715E+02
     34.410  0.4442E+00  0.4442E+00  0.2726E+02  0.2726E+02
     34.662  0.4324E+00  0.4324E+00  0.2737E+02  0.2737E+02
     34.913  0.1983E+01  0.1983E+01  0.2787E+02  0.2787E+02
     35.165  0.1490E+01  0.1490E+01  0.2824E+02  0.2824E+02
     35.416  0.2038E+00  0.2038E+00  0.2829E+02  0.2829E+02
     35.668  0.1101E+01  0.1101E+01  0.2857E+02  0.2857E+02
     35.919  0.1976E+01  0.1976E+01  0.2907E+02  0.2907E+02
     36.171  0.8132E+00  0.8132E+00  0.2927E+02  0.2927E+02
     36.422  0.2235E+01  0.2235E+01  0.2983E+02  0.2983E+02
     36.674  0.1264E+01  0.1264E+01  0.3015E+02  0.3015E+02
     36.925  0.8707E+00  0.8707E+00  0.3037E+02  0.3037E+02
     37.177  0.2902E+00  0.2902E+00  0.3044E+02  0.3044E+02
     37.428  0.1239E+01  0.1239E+01  0.3076E+02  0.3076E+02
     37.680  0.5559E+00  0.5559E+00  0.3090E+02  0.3090E+02
     37.931  0.1491E+01  0.1491E+01  0.3127E+02  0.3127E+02
     38.183  0.5654E+00  0.5654E+00  0.3141E+02  0.3141E+02
     38.435  0.1465E+01  0.1465E+01  0.3178E+02  0.3178E+02
     38.686  0.1510E+01  0.1510E+01  0.3216E+02  0.3216E+02
     38.938  0.1587E+01  0.1587E+01  0.3256E+02  0.3256E+02
     39.189  0.1022E+01  0.1022E+01  0.3282E+02  0.3282E+02
     39.441  0.1252E+01  0.1252E+01  0.3313E+02  0.3313E+02
     39.692  0.3798E+00  0.3798E+00  0.3323E+02  0.3323E+02
     39.944  0.1693E+01  0.1693E+01  0.3365E+02  0.3365E+02
     40.195  0.1425E+01  0.1425E+01  0.3401E+02  0.3401E+02
     40.447  0.3010E+00  0.3010E+00  0.3409E+02  0.3409E+02
     40.698  0.5615E+00  0.5615E+00  0.3423E+02  0.3423E+02
     40.950  0.7851E+00  0.7851E+00  0.3443E+02  0.3443E+02
     41.201 -0.1460E-01 -0.1460E-01  0.3442E+02  0.3442E+02
     41.453  0.7667E+00  0.7667E+00  0.3462E+02  0.3462E+02
     41.704  0.1345E+01  0.1345E+01  0.3495E+02  0.3495E+02
     41.956  0.2313E+01  0.2313E+01  0.3554E+02  0.3554E+02
     42.207  0.1768E+01  0.1768E+01  0.3598E+02  0.3598E+02
     42.459  0.3175E+00  0.3174E+00  0.3606E+02  0.3606E+02
     42.710  0.1439E+01  0.1439E+01  0.3642E+02  0.3642E+02
     42.962  0.1744E+01  0.1744E+01  0.3686E+02  0.3686E+02
     43.213  0.1005E+01  0.1005E+01  0.3711E+02  0.3711E+02
     43.465  0.1261E+01  0.1261E+01  0.3743E+02  0.3743E+02
     43.717  0.9303E+00  0.9304E+00  0.3766E+02  0.3766E+02
     43.968  0.1273E+01  0.1273E+01  0.3798E+02  0.3798E+02
     44.220  0.6724E-01  0.6791E-01  0.3800E+02  0.3800E+02
     44.471  0.2109E+01  0.2108E+01  0.3853E+02  0.3853E+02
     44.723  0.1987E+01  0.1987E+01  0.3903E+02  0.3903E+02
     44.974  0.1286E+01  0.1287E+01  0.3936E+02  0.3936E+02
     45.226  0.1207E+01  0.1206E+01  0.3966E+02  0.3966E+02
     45.477  0.6312E+00  0.6356E+00  0.3982E+02  0.3982E+02
     45.729  0.1180E+01  0.1176E+01  0.4011E+02  0.4011E+02
     45.980  0.1327E+01  0.1327E+01  0.4045E+02  0.4045E+02
     46.232  0.7218E+00  0.7217E+00  0.4063E+02  0.4063E+02
     46.483  0.1827E+01  0.1830E+01  0.4109E+02  0.4109E+02
     46.735  0.2711E+00  0.2679E+00  0.4116E+02  0.4116E+02
     46.986  0.5474E+00  0.5480E+00  0.4130E+02  0.4130E+02
     47.238  0.1437E+01  0.1441E+01  0.4166E+02  0.4166E+02
     47.489  0.6274E+00  0.6243E+00  0.4181E+02  0.4181E+02
     47.741  0.5765E+00  0.5735E+00  0.4196E+02  0.4196E+02
     47.992  0.1729E+01  0.1732E+01  0.4239E+02  0.4239E+02
     48.244  0.1402E+01  0.1403E+01  0.4275E+02  0.4275E+02
     48.495  0.1737E+01  0.1738E+01  0.4318E+02  0.4318E+02
     48.747  0.9960E+00  0.1003E+01  0.4343E+02  0.4344E+02
     48.998  0.1262E+01  0.1257E+01  0.4375E+02  0.4375E+02
     49.250  0.2062E+01  0.2057E+01  0.4427E+02  0.4427E+02
     49.502  0.2269E+00  0.2314E+00  0.4433E+02  0.4433E+02
     49.753  0.1458E+01  0.1403E+01  0.4469E+02  0.4468E+02
     50.005  0.2048E+01  0.2206E+01  0.4521E+02  0.4524E+02
     50.256  0.3751E+00  0.2517E+00  0.4530E+02  0.4530E+02
     50.508  0.9248E+00  0.9320E+00  0.4554E+02  0.4553E+02
     50.759  0.1593E+01  0.1559E+01  0.4594E+02  0.4593E+02
     51.011  0.1179E+01  0.1216E+01  0.4623E+02  0.4623E+02
     51.262  0.1839E+01  0.1861E+01  0.4670E+02  0.4670E+02
     51.514  0.1203E+01  0.1099E+01  0.4700E+02  0.4698E+02
     51.765  0.1339E+01  0.1631E+01  0.4734E+02  0.4739E+02
     52.017  0.2858E+00  0.8170E-01  0.4741E+02  0.4741E+02
     52.268  0.4775E+00  0.4721E+00  0.4753E+02  0.4753E+02
     52.520  0.1894E+01  0.1987E+01  0.4800E+02  0.4803E+02
     52.771  0.6511E+00  0.5551E+00  0.4817E+02  0.4817E+02
     53.023  0.1109E+01  0.8219E+00  0.4845E+02  0.4837E+02
     53.274  0.1858E+01  0.2091E+01  0.4891E+02  0.4890E+02
     53.526  0.8963E+00  0.9364E+00  0.4914E+02  0.4913E+02
     53.777  0.2794E+00  0.5564E+00  0.4921E+02  0.4927E+02
     54.029  0.1586E+01  0.1376E+01  0.4961E+02  0.4962E+02
     54.280  0.1064E+01  0.9742E+00  0.4988E+02  0.4986E+02
     54.532  0.9010E+00  0.5354E+00  0.5010E+02  0.5000E+02
     54.783  0.1284E+01  0.1294E+01  0.5043E+02  0.5032E+02
     55.035  0.1101E+00  0.7892E+00  0.5045E+02  0.5052E+02
     55.287  0.9521E+00  0.8371E+00  0.5069E+02  0.5073E+02
     55.538  0.5463E+00  0.5448E+00  0.5083E+02  0.5087E+02
     55.790  0.1365E+01  0.1504E+01  0.5117E+02  0.5125E+02
     56.041  0.4850E+00  0.1126E+01  0.5130E+02  0.5153E+02
     56.293  0.1596E+01  0.1306E+01  0.5170E+02  0.5186E+02
     56.544  0.9519E+00  0.8823E+00  0.5194E+02  0.5208E+02
     56.796  0.8057E+00  0.6716E+00  0.5214E+02  0.5225E+02
     57.047  0.1269E+01  0.8546E+00  0.5246E+02  0.5247E+02
     57.299  0.8114E+00  0.1144E+01  0.5266E+02  0.5275E+02
     57.550  0.4901E+00  0.7212E+00  0.5279E+02  0.5294E+02
     57.802  0.4412E+00  0.8046E+00  0.5290E+02  0.5314E+02
     58.053  0.1648E+01  0.1273E+01  0.5331E+02  0.5346E+02
     58.305  0.1457E+01  0.2371E+00  0.5368E+02  0.5352E+02
     58.556  0.3822E+00  0.5649E-01  0.5377E+02  0.5353E+02
     58.808  0.1227E+00  0.9033E+00  0.5380E+02  0.5376E+02
     59.059  0.5951E+00  0.3411E+00  0.5395E+02  0.5385E+02
     59.311  0.1777E+00  0.6242E-01  0.5400E+02  0.5386E+02
     59.562  0.6343E-02  0.4527E+00  0.5400E+02  0.5397E+02
     59.814  0.0000E+00  0.9950E-01  0.5400E+02  0.5400E+02
     60.065  0.0000E+00  0.0000E+00  0.5400E+02  0.5400E+02
     60.317  0.0000E+00  0.0000E+00  0.5400E+02  0.5400E+02
     60.569  0.0000E+00  0.0000E+00  0.5400E+02  0.5400E+02
     60.820  0.0000E+00  0.0000E+00  0.5400E+02  0.5400E+02
     61.072  0.0000E+00  0.0000E+00  0.5400E+02  0.5400E+02
     61.323  0.0000E+00  0.0000E+00  0.5400E+02  0.5400E+02
     61.575  0.0000E+00  0.0000E+00  0.5400E+02  0.5400E+02
     61.826  0.0000E+00  0.0000E+00  0.5400E+02  0.5400E+02
     62.078  0.0000E+00  0.0000E+00  0.5400E+02  0.5400E+02
     62.329  0.0000E+00  0.0000E+00  0.5400E+02  0.5400E+02
     62.581  0.0000E+00  0.0000E+00  0.5400E+02  0.5400E+02
     62.832  0.0000E+00  0.0000E+00  0.5400E+02  0.5400E+02
     63.084  0.0000E+00  0.0000E+00  0.5400E+02  0.5400E+02
