    2    2    1    1
  0.2234237E+02  0.3983132E-09  0.3983132E-09  0.3983132E-09  0.5000000E-15
  1.000000000000000E-004
  CAR 
 unknown system                          
      8     16     56
 
  0.0000000E+00  0.0000000E+00  0.0000000E+00  0.4629630E-02
    1       -8.960031   1.000000
    2        3.690142   1.000008
    3        3.690142   1.000006
    4        3.690142   0.999986
    5        4.109564  -0.000000
    6        6.285902   0.000000
    7        6.285902   0.000000
    8        6.285902   0.000000
    9       10.354942   0.000000
   10       13.201026   0.000000
   11       13.201026   0.000000
   12       14.620277   0.000000
   13       14.620277   0.000000
   14       14.620277   0.000000
   15       17.766399   0.000000
   16       28.264117   0.000000
   17       28.264117   0.000000
   18       28.264118   0.000000
   19       28.932310   0.000000
   20       28.932310   0.000000
   21       28.932310   0.000000
   22       29.477772   0.000000
   23       29.477772   0.000000
   24       30.174064   0.000000
   25       30.174064   0.000000
   26       30.174064   0.000000
   27       38.641134   0.000000
   28       39.113193   0.000000
   29       39.113193   0.000000
   30       39.113193   0.000000
   31       41.949238   0.000000
   32       41.949240   0.000000
   33       42.513625   0.000000
   34       42.513628   0.000000
   35       43.460785   0.000000
   36       43.616012   0.000000
   37       43.616013   0.000000
   38       43.616045   0.000000
   39       44.069645   0.000000
   40       44.069645   0.000000
   41       44.069658   0.000000
   42       44.906627   0.000000
   43       44.906629   0.000000
   44       44.906688   0.000000
   45       45.341963   0.000000
   46       45.341965   0.000000
   47       45.342089   0.000000
   48       46.519189   0.000000
   49       46.519191   0.000000
   50       46.519744   0.000000
   51       49.939353   0.000000
   52       51.910348   0.000000
   53       51.910578   0.000000
   54       52.070674   0.000000
   55       52.177515   0.000000
   56       52.178762   0.000000
 
  0.1666667E+00  0.0000000E+00  0.0000000E+00  0.3703704E-01
    1       -8.624026   1.000000
    2        0.642490   1.000000
    3        3.158539   1.000000
    4        3.158539   1.000000
    5        4.854148  -0.000000
    6        6.985381   0.000000
    7        6.985381   0.000000
    8        7.986018   0.000000
    9       11.706025   0.000000
   10       12.131777   0.000000
   11       12.131777   0.000000
   12       13.851036   0.000000
   13       16.964644   0.000000
   14       16.964644   0.000000
   15       19.980727   0.000000
   16       24.049094   0.000000
   17       24.049094   0.000000
   18       24.342561   0.000000
   19       29.093417   0.000000
   20       29.093417   0.000000
   21       29.545477   0.000000
   22       29.545478   0.000000
   23       30.461482   0.000000
   24       31.766163   0.000000
   25       34.741118   0.000000
   26       34.948195   0.000000
   27       34.948195   0.000000
   28       37.062061   0.000000
   29       37.062061   0.000000
   30       38.129271   0.000000
   31       38.129271   0.000000
   32       39.769732   0.000000
   33       39.769732   0.000000
   34       40.012468   0.000000
   35       41.531257   0.000000
   36       41.553485   0.000000
   37       42.912410   0.000000
   38       42.912410   0.000000
   39       43.748421   0.000000
   40       44.224791   0.000000
   41       44.639226   0.000000
   42       44.639230   0.000000
   43       45.890898   0.000000
   44       47.112260   0.000000
   45       47.112301   0.000000
   46       48.373706   0.000000
   47       48.373906   0.000000
   48       48.417283   0.000000
   49       49.950607   0.000000
   50       49.950683   0.000000
   51       50.770315   0.000000
   52       51.426646   0.000000
   53       52.724975   0.000000
   54       52.739225   0.000000
   55       55.499647   0.000000
   56       55.535149   0.000000
 
  0.3333333E+00  0.0000000E+00  0.0000000E+00  0.3703704E-01
    1       -7.689123   1.000000
    2       -2.311554   1.000000
    3        2.499975   1.000000
    4        2.499975   1.000000
    5        4.318486  -0.000000
    6        7.536927   0.000000
    7        7.536927   0.000000
    8       10.848335   0.000000
    9       11.759089   0.000000
   10       12.745349   0.000000
   11       12.745349   0.000000
   12       16.274169   0.000000
   13       19.332480   0.000000
   14       19.332480   0.000000
   15       20.537502   0.000000
   16       20.932238   0.000000
   17       20.932238   0.000000
   18       24.209598   0.000000
   19       28.964420   0.000000
   20       29.415746   0.000000
   21       29.415746   0.000000
   22       30.176285   0.000000
   23       30.176285   0.000000
   24       31.190621   0.000000
   25       31.361627   0.000000
   26       31.361627   0.000000
   27       33.220345   0.000000
   28       35.941408   0.000000
   29       35.941408   0.000000
   30       36.530848   0.000000
   31       36.530848   0.000000
   32       36.733785   0.000000
   33       38.526754   0.000000
   34       39.134060   0.000000
   35       41.843060   0.000000
   36       41.843061   0.000000
   37       42.554345   0.000000
   38       42.554345   0.000000
   39       43.095669   0.000000
   40       44.721101   0.000000
   41       44.721101   0.000000
   42       44.853546   0.000000
   43       46.276518   0.000000
   44       49.972491   0.000000
   45       49.972566   0.000000
   46       51.212508   0.000000
   47       51.213253   0.000000
   48       52.551267   0.000000
   49       53.576458   0.000000
   50       53.576756   0.000000
   51       54.111870   0.000000
   52       56.561502   0.000000
   53       57.021694   0.000000
   54       57.097643   0.000000
   55       58.309733   0.000000
   56       58.330478   0.000000
 
  0.5000000E+00  0.0000000E+00  0.0000000E+00  0.1851852E-01
    1       -6.856717   1.000000
    2       -3.843927   1.000000
    3        2.256456   1.000000
    4        2.256456   1.000000
    5        4.099865  -0.000000
    6        7.515450   0.000000
    7        7.515450   0.000000
    8       10.959594   0.000000
    9       14.403272   0.000000
   10       14.992364   0.000000
   11       15.001419   0.000000
   12       15.001419   0.000000
   13       16.065609   0.000000
   14       16.065609   0.000000
   15       22.635723   0.000000
   16       23.871041   0.000000
   17       25.337828   0.000000
   18       25.337828   0.000000
   19       25.489113   0.000000
   20       25.489113   0.000000
   21       28.807333   0.000000
   22       29.995569   0.000000
   23       30.276291   0.000000
   24       30.276291   0.000000
   25       30.877481   0.000000
   26       30.877481   0.000000
   27       31.698792   0.000000
   28       35.148743   0.000000
   29       35.148743   0.000000
   30       35.317690   0.000000
   31       35.317690   0.000000
   32       36.143024   0.000000
   33       37.253571   0.000000
   34       37.401463   0.000000
   35       42.511753   0.000000
   36       42.511753   0.000000
   37       42.771313   0.000000
   38       43.736324   0.000000
   39       43.736325   0.000000
   40       44.724335   0.000000
   41       48.106722   0.000000
   42       48.106734   0.000000
   43       49.447692   0.000000
   44       49.447766   0.000000
   45       50.237151   0.000000
   46       52.383161   0.000000
   47       52.879119   0.000000
   48       52.879378   0.000000
   49       54.228433   0.000000
   50       54.232128   0.000000
   51       54.736424   0.000000
   52       56.032763   0.000000
   53       56.037192   0.000000
   54       57.733088   0.000000
   55       57.757645   0.000000
   56       58.506563   0.000000
 
  0.1666667E+00  0.1666667E+00  0.0000000E+00  0.2777778E-01
    1       -8.508779   1.000000
    2        0.687240   1.000000
    3        2.382373   1.000000
    4        2.382373   1.000000
    5        5.356688   0.000000
    6        6.616931   0.000000
    7        8.156049   0.000000
    8        8.156049   0.000000
    9       10.710620   0.000000
   10       12.295747   0.000000
   11       13.660734   0.000000
   12       15.554551   0.000000
   13       15.554551   0.000000
   14       16.389747   0.000000
   15       21.295378   0.000000
   16       23.613535   0.000000
   17       23.613536   0.000000
   18       24.774013   0.000000
   19       25.336558   0.000000
   20       28.691388   0.000000
   21       29.973069   0.000000
   22       29.973069   0.000000
   23       31.395900   0.000000
   24       34.812491   0.000000
   25       34.812491   0.000000
   26       35.062801   0.000000
   27       35.062801   0.000000
   28       35.407930   0.000000
   29       35.449571   0.000000
   30       36.309095   0.000000
   31       37.818934   0.000000
   32       40.418470   0.000000
   33       40.418471   0.000000
   34       40.624601   0.000000
   35       41.304546   0.000000
   36       41.617274   0.000000
   37       42.056964   0.000000
   38       42.056965   0.000000
   39       42.694251   0.000000
   40       45.197633   0.000000
   41       45.669029   0.000000
   42       45.669030   0.000000
   43       46.297427   0.000000
   44       47.237060   0.000000
   45       47.911185   0.000000
   46       47.911185   0.000000
   47       48.677816   0.000000
   48       48.677847   0.000000
   49       48.856619   0.000000
   50       49.896361   0.000000
   51       50.305637   0.000000
   52       51.546467   0.000000
   53       53.051334   0.000000
   54       53.052531   0.000000
   55       56.016520   0.000000
   56       56.811833   0.000000
 
  0.3333333E+00  0.1666667E+00  0.0000000E+00  0.1111111E+00
    1       -7.751828   1.000000
    2       -1.601361   1.000000
    3        1.408271   1.000000
    4        1.759221   1.000000
    5        5.576663   0.000000
    6        6.940369   0.000000
    7        8.739197   0.000000
    8        9.040338   0.000000
    9       12.314438   0.000000
   10       13.566147   0.000000
   11       14.014413   0.000000
   12       15.889412   0.000000
   13       18.218795   0.000000
   14       19.437529   0.000000
   15       19.748462   0.000000
   16       20.041801   0.000000
   17       23.965719   0.000000
   18       24.857598   0.000000
   19       25.050414   0.000000
   20       26.376013   0.000000
   21       29.086535   0.000000
   22       30.598923   0.000000
   23       30.937606   0.000000
   24       32.186733   0.000000
   25       32.218563   0.000000
   26       33.366870   0.000000
   27       34.859170   0.000000
   28       34.939283   0.000000
   29       35.645120   0.000000
   30       35.898700   0.000000
   31       37.749219   0.000000
   32       37.878174   0.000000
   33       38.965403   0.000000
   34       39.866877   0.000000
   35       39.882165   0.000000
   36       41.279236   0.000000
   37       42.464817   0.000000
   38       43.577637   0.000000
   39       44.685404   0.000000
   40       44.852985   0.000000
   41       45.504311   0.000000
   42       45.819281   0.000000
   43       46.474457   0.000000
   44       47.470438   0.000000
   45       48.240619   0.000000
   46       48.648441   0.000000
   47       51.058723   0.000000
   48       51.591662   0.000000
   49       51.732009   0.000000
   50       52.359859   0.000000
   51       53.900359   0.000000
   52       55.437316   0.000000
   53       56.347496   0.000000
   54       57.531906   0.000000
   55       58.276212   0.000000
   56       58.658758   0.000000
 
  0.5000000E+00  0.1666667E+00  0.0000000E+00  0.1111111E+00
    1       -6.684915   1.000000
    2       -3.619595   1.000000
    3        0.580752   1.000000
    4        1.688588   1.000000
    5        5.455550   0.000000
    6        7.591390   0.000000
    7        8.746175   0.000000
    8       10.218560   0.000000
    9       13.061814   0.000000
   10       14.891504   0.000000
   11       14.992822   0.000000
   12       15.666354   0.000000
   13       16.607493   0.000000
   14       20.046150   0.000000
   15       21.664185   0.000000
   16       22.532405   0.000000
   17       23.731118   0.000000
   18       24.542788   0.000000
   19       25.469650   0.000000
   20       26.478457   0.000000
   21       26.973713   0.000000
   22       29.332398   0.000000
   23       29.387697   0.000000
   24       30.425669   0.000000
   25       30.585258   0.000000
   26       31.465409   0.000000
   27       32.381424   0.000000
   28       32.970834   0.000000
   29       34.821262   0.000000
   30       36.151026   0.000000
   31       36.392388   0.000000
   32       37.376928   0.000000
   33       38.515514   0.000000
   34       39.431312   0.000000
   35       40.181924   0.000000
   36       42.076612   0.000000
   37       42.959493   0.000000
   38       44.289468   0.000000
   39       46.340040   0.000000
   40       46.964030   0.000000
   41       47.141291   0.000000
   42       47.759690   0.000000
   43       48.482924   0.000000
   44       48.841291   0.000000
   45       49.200678   0.000000
   46       50.895530   0.000000
   47       51.124004   0.000000
   48       52.891901   0.000000
   49       53.182167   0.000000
   50       53.657376   0.000000
   51       55.974776   0.000000
   52       56.119287   0.000000
   53       57.196574   0.000000
   54       57.752546   0.000000
   55       58.889532   0.000000
   56       59.406655   0.000000
 
 -0.3333333E+00  0.1666667E+00  0.0000000E+00  0.1111111E+00
    1       -7.022586   1.000000
    2       -3.072680   1.000000
    3        0.364888   1.000000
    4        2.181389   1.000000
    5        5.602931   0.000000
    6        7.852880   0.000000
    7        8.208592   0.000000
    8       10.558480   0.000000
    9       12.127225   0.000000
   10       12.955045   0.000000
   11       14.857936   0.000000
   12       16.565360   0.000000
   13       18.313780   0.000000
   14       20.007591   0.000000
   15       20.060262   0.000000
   16       21.639923   0.000000
   17       24.201444   0.000000
   18       25.506464   0.000000
   19       26.185575   0.000000
   20       26.435446   0.000000
   21       27.578991   0.000000
   22       27.594459   0.000000
   23       30.352037   0.000000
   24       30.714113   0.000000
   25       31.251295   0.000000
   26       31.447956   0.000000
   27       31.449824   0.000000
   28       35.100253   0.000000
   29       35.755255   0.000000
   30       36.323211   0.000000
   31       36.689036   0.000000
   32       37.916050   0.000000
   33       38.246634   0.000000
   34       39.099035   0.000000
   35       39.940058   0.000000
   36       41.914733   0.000000
   37       42.568097   0.000000
   38       43.137651   0.000000
   39       43.424860   0.000000
   40       45.915884   0.000000
   41       47.626282   0.000000
   42       47.991704   0.000000
   43       49.137553   0.000000
   44       49.829506   0.000000
   45       49.986334   0.000000
   46       50.857870   0.000000
   47       52.099493   0.000000
   48       52.952770   0.000000
   49       53.199592   0.000000
   50       53.802784   0.000000
   51       54.505315   0.000000
   52       55.393023   0.000000
   53       56.131173   0.000000
   54       57.497561   0.000000
   55       57.897907   0.000000
   56       58.396852   0.000000
 
 -0.1666667E+00  0.1666667E+00  0.0000000E+00  0.5555556E-01
    1       -8.077754   1.000000
    2       -0.891185   1.000000
    3        1.129552   1.000000
    4        2.979449   1.000000
    5        5.793545   0.000000
    6        7.305188   0.000000
    7        7.579497   0.000000
    8        8.934826   0.000000
    9       11.124301   0.000000
   10       13.196918   0.000000
   11       13.232251   0.000000
   12       15.585544   0.000000
   13       16.882036   0.000000
   14       19.359184   0.000000
   15       20.174554   0.000000
   16       22.490697   0.000000
   17       23.960695   0.000000
   18       24.536467   0.000000
   19       24.548811   0.000000
   20       26.471592   0.000000
   21       30.201847   0.000000
   22       30.736580   0.000000
   23       31.738476   0.000000
   24       32.799442   0.000000
   25       33.200298   0.000000
   26       33.814769   0.000000
   27       34.731990   0.000000
   28       35.674836   0.000000
   29       36.202413   0.000000
   30       36.543335   0.000000
   31       36.822907   0.000000
   32       38.485177   0.000000
   33       39.418894   0.000000
   34       39.770329   0.000000
   35       39.994765   0.000000
   36       40.621379   0.000000
   37       41.864119   0.000000
   38       42.110949   0.000000
   39       43.707896   0.000000
   40       44.717152   0.000000
   41       45.417587   0.000000
   42       46.003253   0.000000
   43       46.958587   0.000000
   44       48.099553   0.000000
   45       48.181763   0.000000
   46       48.885614   0.000000
   47       49.693898   0.000000
   48       49.780044   0.000000
   49       52.372469   0.000000
   50       53.250452   0.000000
   51       54.069751   0.000000
   52       54.182737   0.000000
   53       55.775960   0.000000
   54       56.473532   0.000000
   55       56.881061   0.000000
   56       58.045176   0.000000
 
  0.3333333E+00  0.3333333E+00  0.0000000E+00  0.2777778E-01
    1       -7.180076   1.000000
    2       -2.357470   1.000000
    3        1.046138   1.000000
    4        1.046138   1.000000
    5        4.465511  -0.000000
    6        5.793987   0.000000
    7       11.079497   0.000000
    8       11.079497   0.000000
    9       12.350185   0.000000
   10       15.043264   0.000000
   11       15.710589   0.000000
   12       18.316232   0.000000
   13       18.316232   0.000000
   14       18.822189   0.000000
   15       19.235606   0.000000
   16       19.235606   0.000000
   17       20.604453   0.000000
   18       21.882725   0.000000
   19       27.461660   0.000000
   20       28.269384   0.000000
   21       28.618482   0.000000
   22       28.618482   0.000000
   23       29.520921   0.000000
   24       30.384755   0.000000
   25       31.197252   0.000000
   26       31.197252   0.000000
   27       32.650447   0.000000
   28       36.447152   0.000000
   29       37.345713   0.000000
   30       37.345713   0.000000
   31       38.728263   0.000000
   32       39.308053   0.000000
   33       40.532511   0.000000
   34       40.532511   0.000000
   35       40.762382   0.000000
   36       40.843257   0.000000
   37       40.843257   0.000000
   38       42.882985   0.000000
   39       43.589743   0.000000
   40       43.691819   0.000000
   41       44.421217   0.000000
   42       44.421217   0.000000
   43       46.180748   0.000000
   44       49.004529   0.000000
   45       50.395693   0.000000
   46       50.395817   0.000000
   47       51.548973   0.000000
   48       52.333662   0.000000
   49       53.143949   0.000000
   50       53.144960   0.000000
   51       53.685802   0.000000
   52       54.182214   0.000000
   53       57.773085   0.000000
   54       58.415886   0.000000
   55       58.443795   0.000000
   56       59.937212   0.000000
 
  0.5000000E+00  0.3333333E+00  0.0000000E+00  0.1111111E+00
    1       -6.103734   1.000000
    2       -3.865426   1.000000
    3       -0.083961   1.000000
    4        0.885425   1.000000
    5        4.863840  -0.000000
    6        6.480571   0.000000
    7       10.837522   0.000000
    8       11.385257   0.000000
    9       14.206151   0.000000
   10       15.380060   0.000000
   11       15.809540   0.000000
   12       17.287217   0.000000
   13       17.770709   0.000000
   14       19.823758   0.000000
   15       20.728325   0.000000
   16       21.426359   0.000000
   17       22.086630   0.000000
   18       23.057661   0.000000
   19       23.659526   0.000000
   20       26.135224   0.000000
   21       26.310105   0.000000
   22       26.632796   0.000000
   23       28.580754   0.000000
   24       30.092241   0.000000
   25       31.849656   0.000000
   26       31.855221   0.000000
   27       33.969551   0.000000
   28       34.034431   0.000000
   29       35.559221   0.000000
   30       36.393381   0.000000
   31       37.513402   0.000000
   32       38.323760   0.000000
   33       38.869136   0.000000
   34       39.277292   0.000000
   35       41.722293   0.000000
   36       41.811507   0.000000
   37       42.801910   0.000000
   38       43.761828   0.000000
   39       44.794755   0.000000
   40       45.022114   0.000000
   41       45.736267   0.000000
   42       47.976466   0.000000
   43       48.400185   0.000000
   44       49.116016   0.000000
   45       49.851980   0.000000
   46       50.702110   0.000000
   47       51.390127   0.000000
   48       53.084798   0.000000
   49       54.381617   0.000000
   50       54.633211   0.000000
   51       55.877785   0.000000
   52       56.479641   0.000000
   53       57.030209   0.000000
   54       57.210514   0.000000
   55       58.204971   0.000000
   56       59.114440   0.000000
 
 -0.3333333E+00  0.3333333E+00  0.0000000E+00  0.5555556E-01
    1       -5.963467   1.000000
    2       -4.017637   1.000000
    3       -0.801224   1.000000
    4        1.341133   1.000000
    5        5.265182   0.000000
    6        9.570717   0.000000
    7       10.201795   0.000000
    8       10.212344   0.000000
    9       11.012041   0.000000
   10       12.703769   0.000000
   11       17.407983   0.000000
   12       17.721524   0.000000
   13       19.383557   0.000000
   14       20.655025   0.000000
   15       21.077448   0.000000
   16       22.110973   0.000000
   17       22.236931   0.000000
   18       24.122370   0.000000
   19       25.480273   0.000000
   20       25.825946   0.000000
   21       25.918815   0.000000
   22       26.245488   0.000000
   23       28.905542   0.000000
   24       29.696251   0.000000
   25       29.795129   0.000000
   26       31.747616   0.000000
   27       31.792352   0.000000
   28       32.216487   0.000000
   29       36.795434   0.000000
   30       37.290042   0.000000
   31       37.342122   0.000000
   32       37.667702   0.000000
   33       37.962574   0.000000
   34       38.461488   0.000000
   35       41.429918   0.000000
   36       41.801810   0.000000
   37       43.030677   0.000000
   38       45.052726   0.000000
   39       45.489269   0.000000
   40       47.356576   0.000000
   41       47.834360   0.000000
   42       48.598632   0.000000
   43       49.112734   0.000000
   44       50.431640   0.000000
   45       50.433620   0.000000
   46       51.084527   0.000000
   47       51.283454   0.000000
   48       52.570111   0.000000
   49       53.177894   0.000000
   50       53.716496   0.000000
   51       54.789904   0.000000
   52       55.206922   0.000000
   53       56.051887   0.000000
   54       56.073450   0.000000
   55       57.708294   0.000000
   56       58.293610   0.000000
 
  0.5000000E+00  0.5000000E+00  0.0000000E+00  0.1388889E-01
    1       -5.065682   1.000000
    2       -5.065682   1.000000
    3        0.569791   1.000000
    4        0.569792   1.000000
    5        4.569663  -0.000000
    6        4.569663  -0.000000
    7       13.270265   0.000000
    8       13.270265   0.000000
    9       15.480553   0.000000
   10       15.480553   0.000000
   11       16.458269   0.000000
   12       16.458269   0.000000
   13       17.356064   0.000000
   14       17.356064   0.000000
   15       22.873989   0.000000
   16       22.873989   0.000000
   17       22.880530   0.000000
   18       22.880530   0.000000
   19       22.889290   0.000000
   20       22.889290   0.000000
   21       23.585487   0.000000
   22       23.585487   0.000000
   23       30.838157   0.000000
   24       30.838157   0.000000
   25       32.212906   0.000000
   26       32.212906   0.000000
   27       35.705193   0.000000
   28       35.705193   0.000000
   29       36.452419   0.000000
   30       36.452419   0.000000
   31       38.558406   0.000000
   32       38.558406   0.000000
   33       38.781902   0.000000
   34       38.781902   0.000000
   35       40.076685   0.000000
   36       40.076686   0.000000
   37       42.507187   0.000000
   38       42.507187   0.000000
   39       42.915215   0.000000
   40       42.915215   0.000000
   41       46.992560   0.000000
   42       46.992579   0.000000
   43       49.837488   0.000000
   44       49.837761   0.000000
   45       50.318988   0.000000
   46       50.319142   0.000000
   47       55.065453   0.000000
   48       55.074054   0.000000
   49       55.903577   0.000000
   50       55.961754   0.000000
   51       56.957198   0.000000
   52       57.004932   0.000000
   53       57.151984   0.000000
   54       57.376595   0.000000
   55       57.953707   0.000000
   56       58.113159   0.000000
 
  0.5000000E+00  0.3333333E+00  0.1666667E+00  0.1111111E+00
    1       -6.836083   1.000000
    2       -2.937189   1.000000
    3       -0.031517   1.000000
    4        1.218778   1.000000
    5        6.586020   0.000000
    6        7.033895   0.000000
    7        8.152754   0.000000
    8       10.854419   0.000000
    9       13.078396   0.000000
   10       13.728902   0.000000
   11       16.226050   0.000000
   12       16.938044   0.000000
   13       17.541543   0.000000
   14       19.586968   0.000000
   15       20.007716   0.000000
   16       21.720937   0.000000
   17       23.267014   0.000000
   18       25.052705   0.000000
   19       25.069128   0.000000
   20       25.949078   0.000000
   21       26.935144   0.000000
   22       27.918145   0.000000
   23       29.064082   0.000000
   24       30.617632   0.000000
   25       30.921525   0.000000
   26       32.429068   0.000000
   27       33.521055   0.000000
   28       34.269351   0.000000
   29       34.816839   0.000000
   30       35.860535   0.000000
   31       36.336093   0.000000
   32       38.354878   0.000000
   33       39.423159   0.000000
   34       40.129815   0.000000
   35       41.614774   0.000000
   36       42.091162   0.000000
   37       43.445516   0.000000
   38       44.333455   0.000000
   39       44.537399   0.000000
   40       44.604499   0.000000
   41       46.302168   0.000000
   42       46.416854   0.000000
   43       47.018337   0.000000
   44       49.210858   0.000000
   45       49.525052   0.000000
   46       50.692378   0.000000
   47       51.349664   0.000000
   48       52.478738   0.000000
   49       53.347146   0.000000
   50       55.311564   0.000000
   51       55.360406   0.000000
   52       55.686542   0.000000
   53       57.202797   0.000000
   54       57.228565   0.000000
   55       57.784526   0.000000
   56       59.373930   0.000000
 
 -0.3333333E+00  0.3333333E+00  0.1666667E+00  0.1111111E+00
    1       -5.957861   1.000000
    2       -4.052652   1.000000
    3       -0.482426   1.000000
    4        0.777029   1.000000
    5        6.855476   0.000000
    6        7.414347   0.000000
    7        9.879223   0.000000
    8        9.889416   0.000000
    9       11.860986   0.000000
   10       15.576510   0.000000
   11       15.625097   0.000000
   12       16.403137   0.000000
   13       19.954459   0.000000
   14       20.514933   0.000000
   15       21.221120   0.000000
   16       21.963235   0.000000
   17       22.312593   0.000000
   18       24.620619   0.000000
   19       25.096147   0.000000
   20       25.617075   0.000000
   21       25.931143   0.000000
   22       27.908770   0.000000
   23       28.256828   0.000000
   24       28.849840   0.000000
   25       30.208622   0.000000
   26       31.699115   0.000000
   27       32.927723   0.000000
   28       33.340161   0.000000
   29       33.519622   0.000000
   30       34.445614   0.000000
   31       36.448561   0.000000
   32       38.445753   0.000000
   33       40.756793   0.000000
   34       41.499109   0.000000
   35       41.941859   0.000000
   36       42.806555   0.000000
   37       43.326480   0.000000
   38       43.885288   0.000000
   39       45.058077   0.000000
   40       45.517549   0.000000
   41       46.024037   0.000000
   42       47.880523   0.000000
   43       48.937858   0.000000
   44       49.565502   0.000000
   45       50.676675   0.000000
   46       51.671058   0.000000
   47       52.353175   0.000000
   48       52.420792   0.000000
   49       54.353793   0.000000
   50       54.641921   0.000000
   51       55.018487   0.000000
   52       55.645020   0.000000
   53       56.169814   0.000000
   54       56.586476   0.000000
   55       57.228061   0.000000
   56       58.213616   0.000000
 
 -0.3333333E+00  0.5000000E+00  0.1666667E+00  0.5555556E-01
    1       -4.987898   1.000000
    2       -4.987898   1.000000
    3       -0.080326   1.000000
    4       -0.080326   1.000000
    5        6.511835   0.000000
    6        6.511835   0.000000
    7       10.375779   0.000000
    8       10.375779   0.000000
    9       14.786074   0.000000
   10       14.786074   0.000000
   11       16.690940   0.000000
   12       16.690940   0.000000
   13       20.386391   0.000000
   14       20.386391   0.000000
   15       20.926411   0.000000
   16       20.926411   0.000000
   17       21.945092   0.000000
   18       21.945092   0.000000
   19       25.677516   0.000000
   20       25.677516   0.000000
   21       26.783044   0.000000
   22       26.783044   0.000000
   23       27.264155   0.000000
   24       27.264155   0.000000
   25       31.421392   0.000000
   26       31.421392   0.000000
   27       33.038734   0.000000
   28       33.038734   0.000000
   29       35.852652   0.000000
   30       35.852652   0.000000
   31       38.709633   0.000000
   32       38.709633   0.000000