    2    2    1    2
  0.2234237E+02  0.3983132E-09  0.3983132E-09  0.3983132E-09  0.5000000E-15
  1.000000000000000E-004
  CAR 
 unknown system                          
      8     16     54
 
  0.0000000E+00  0.0000000E+00  0.0000000E+00  0.4629630E-02
    1       -8.943137     -8.943136   1.000000   1.000000
    2        3.542637      3.542639   1.000020   0.999996
    3        3.542637      3.542639   1.000010   0.999991
    4        3.542637      3.542639   1.000003   0.999980
    5        4.128357      4.128355  -0.000000  -0.000000
    6        6.185540      6.185541   0.000000   0.000000
    7        6.185540      6.185541   0.000000   0.000000
    8        6.185540      6.185541   0.000000   0.000000
    9       10.371024     10.371022   0.000000   0.000000
   10       13.213005     13.213007   0.000000   0.000000
   11       13.213005     13.213007   0.000000   0.000000
   12       14.615081     14.615078   0.000000   0.000000
   13       14.615081     14.615078   0.000000   0.000000
   14       14.615081     14.615078   0.000000   0.000000
   15       17.780424     17.780427   0.000000   0.000000
   16       28.276473     28.276471   0.000000   0.000000
   17       28.276473     28.276471   0.000000   0.000000
   18       28.276473     28.276471   0.000000   0.000000
   19       28.834616     28.834615   0.000000   0.000000
   20       28.834616     28.834615   0.000000   0.000000
   21       28.834616     28.834616   0.000000   0.000000
   22       29.490889     29.490890   0.000000   0.000000
   23       29.490889     29.490890   0.000000   0.000000
   24       30.187586     30.187588   0.000000   0.000000
   25       30.187586     30.187588   0.000000   0.000000
   26       30.187586     30.187588   0.000000   0.000000
   27       38.660189     38.660201   0.000000   0.000000
   28       39.127756     39.127754   0.000000   0.000000
   29       39.127756     39.127757   0.000000   0.000000
   30       39.127780     39.127767   0.000000   0.000000
   31       41.962831     41.962822   0.000000   0.000000
   32       41.963181     41.962854   0.000000   0.000000
   33       42.524699     42.524675   0.000000   0.000000
   34       42.524861     42.524770   0.000000   0.000000
   35       43.480785     43.480610   0.000000   0.000000
   36       43.582330     43.582248   0.000000   0.000000
   37       43.583327     43.582838   0.000000   0.000000
   38       43.584741     43.584006   0.000000   0.000000
   39       44.066640     44.066654   0.000000   0.000000
   40       44.067017     44.067364   0.000000   0.000000
   41       44.068901     44.068740   0.000000   0.000000
   42       44.916665     44.916718   0.000000   0.000000
   43       44.919831     44.918294   0.000000   0.000000
   44       44.924429     44.919180   0.000000   0.000000
   45       45.325628     45.325233   0.000000   0.000000
   46       45.327520     45.326481   0.000000   0.000000
   47       45.329889     45.333328   0.000000   0.000000
   48       46.530900     46.530764   0.000000   0.000000
   49       46.536651     46.534835   0.000000   0.000000
   50       46.543067     46.559244   0.000000   0.000000
   51       50.205780     50.287707   0.000000   0.000000
   52       51.939928     51.967601   0.000000   0.000000
   53       52.103880     52.042614   0.000000   0.000000
   54       52.239729     52.190995   0.000000   0.000000
 
  0.1666667E+00  0.0000000E+00  0.0000000E+00  0.3703704E-01
    1       -8.609825     -8.609824   1.000000   1.000000
    2        0.574180      0.574181   1.000000   1.000000
    3        3.014722      3.014723   1.000000   1.000000
    4        3.014722      3.014724   1.000000   1.000000
    5        4.816248      4.816248  -0.000000  -0.000000
    6        6.881994      6.881995   0.000000   0.000000
    7        6.881994      6.881995   0.000000   0.000000
    8        7.896594      7.896594   0.000000   0.000000
    9       11.687620     11.687618   0.000000   0.000000
   10       12.140963     12.140963   0.000000   0.000000
   11       12.140964     12.140963   0.000000   0.000000
   12       13.850678     13.850677   0.000000   0.000000
   13       16.962637     16.962636   0.000000   0.000000
   14       16.962637     16.962636   0.000000   0.000000
   15       19.985453     19.985455   0.000000   0.000000
   16       24.037280     24.037280   0.000000   0.000000
   17       24.037280     24.037280   0.000000   0.000000
   18       24.294778     24.294777   0.000000   0.000000
   19       29.100738     29.100737   0.000000   0.000000
   20       29.100738     29.100738   0.000000   0.000000
   21       29.484635     29.484635   0.000000   0.000000
   22       29.484635     29.484636   0.000000   0.000000
   23       30.475193     30.475195   0.000000   0.000000
   24       31.757672     31.757671   0.000000   0.000000
   25       34.738966     34.738966   0.000000   0.000000
   26       34.959066     34.959067   0.000000   0.000000
   27       34.959067     34.959067   0.000000   0.000000
   28       37.059718     37.059717   0.000000   0.000000
   29       37.059721     37.059718   0.000000   0.000000
   30       38.140612     38.140610   0.000000   0.000000
   31       38.140615     38.140612   0.000000   0.000000
   32       39.768205     39.768205   0.000000   0.000000
   33       39.768214     39.768206   0.000000   0.000000
   34       39.998617     39.998620   0.000000   0.000000
   35       41.541477     41.541316   0.000000   0.000000
   36       41.554648     41.554752   0.000000   0.000000
   37       42.905039     42.905032   0.000000   0.000000
   38       42.905236     42.905132   0.000000   0.000000
   39       43.760129     43.760193   0.000000   0.000000
   40       44.228578     44.228286   0.000000   0.000000
   41       44.643979     44.643949   0.000000   0.000000
   42       44.644088     44.644079   0.000000   0.000000
   43       45.880014     45.879338   0.000000   0.000000
   44       47.091959     47.092050   0.000000   0.000000
   45       47.104332     47.100496   0.000000   0.000000
   46       48.386705     48.390153   0.000000   0.000000
   47       48.426542     48.401650   0.000000   0.000000
   48       48.441236     48.433808   0.000000   0.000000
   49       49.976791     49.954880   0.000000   0.000000
   50       50.094032     49.996462   0.000000   0.000000
   51       50.888941     50.828463   0.000000   0.000000
   52       51.506259     51.548468   0.000000   0.000000
   53       52.889050     52.843706   0.000000   0.000000
   54       53.359045     55.053476   0.000000   0.000000
 
  0.3333333E+00  0.0000000E+00  0.0000000E+00  0.3703704E-01
    1       -7.680714     -7.680713   1.000000   1.000000
    2       -2.364919     -2.364918   1.000000   1.000000
    3        2.355769      2.355770   1.000000   1.000000
    4        2.355769      2.355771   1.000000   1.000000
    5        4.298254      4.298254  -0.000000  -0.000000
    6        7.452863      7.452864   0.000000   0.000000
    7        7.452863      7.452864   0.000000   0.000000
    8       10.755032     10.755032   0.000000   0.000000
    9       11.759213     11.759211   0.000000   0.000000
   10       12.735895     12.735894   0.000000   0.000000
   11       12.735895     12.735895   0.000000   0.000000
   12       16.184367     16.184366   0.000000   0.000000
   13       19.319358     19.319359   0.000000   0.000000
   14       19.319358     19.319359   0.000000   0.000000
   15       20.530965     20.530965   0.000000   0.000000
   16       20.931111     20.931109   0.000000   0.000000
   17       20.931111     20.931109   0.000000   0.000000
   18       24.208158     24.208159   0.000000   0.000000
   19       28.956938     28.956938   0.000000   0.000000
   20       29.425039     29.425039   0.000000   0.000000
   21       29.425040     29.425039   0.000000   0.000000
   22       30.124108     30.124109   0.000000   0.000000
   23       30.124109     30.124109   0.000000   0.000000
   24       31.204987     31.204990   0.000000   0.000000
   25       31.354621     31.354620   0.000000   0.000000
   26       31.354621     31.354621   0.000000   0.000000
   27       33.236117     33.236117   0.000000   0.000000
   28       35.939899     35.939898   0.000000   0.000000
   29       35.939899     35.939898   0.000000   0.000000
   30       36.529410     36.529409   0.000000   0.000000
   31       36.529410     36.529409   0.000000   0.000000
   32       36.738683     36.738684   0.000000   0.000000
   33       38.536054     38.536055   0.000000   0.000000
   34       39.123631     39.123631   0.000000   0.000000
   35       41.851987     41.851987   0.000000   0.000000
   36       41.851993     41.851991   0.000000   0.000000
   37       42.558474     42.558475   0.000000   0.000000
   38       42.558476     42.558493   0.000000   0.000000
   39       43.110368     43.110367   0.000000   0.000000
   40       44.708483     44.708478   0.000000   0.000000
   41       44.708530     44.708535   0.000000   0.000000
   42       44.852754     44.852749   0.000000   0.000000
   43       46.277151     46.277182   0.000000   0.000000
   44       49.974539     49.975346   0.000000   0.000000
   45       49.979937     49.978389   0.000000   0.000000
   46       51.218551     51.215245   0.000000   0.000000
   47       51.226744     51.226063   0.000000   0.000000
   48       52.615688     52.555424   0.000000   0.000000
   49       53.611730     53.614696   0.000000   0.000000
   50       53.748357     53.745541   0.000000   0.000000
   51       54.140321     54.253822   0.000000   0.000000
   52       56.793513     56.884403   0.000000   0.000000
   53       57.144473     57.669222   0.000000   0.000000
   54       58.252194     59.057469   0.000000   0.000000
 
  0.5000000E+00  0.0000000E+00  0.0000000E+00  0.1851852E-01
    1       -6.848927     -6.848926   1.000000   1.000000
    2       -3.893744     -3.893743   1.000000   1.000000
    3        2.111280      2.111282   1.000000   1.000000
    4        2.111281      2.111282   1.000000   1.000000
    5        4.085996      4.085996  -0.000000  -0.000000
    6        7.445397      7.445398   0.000000   0.000000
    7        7.445397      7.445398   0.000000   0.000000
    8       10.938145     10.938145   0.000000   0.000000
    9       14.331880     14.331879   0.000000   0.000000
   10       14.880188     14.880186   0.000000   0.000000
   11       14.952973     14.952972   0.000000   0.000000
   12       14.952974     14.952972   0.000000   0.000000
   13       16.077362     16.077364   0.000000   0.000000
   14       16.077362     16.077364   0.000000   0.000000
   15       22.609736     22.609736   0.000000   0.000000
   16       23.885100     23.885100   0.000000   0.000000
   17       25.329026     25.329026   0.000000   0.000000
   18       25.329026     25.329027   0.000000   0.000000
   19       25.501730     25.501728   0.000000   0.000000
   20       25.501730     25.501728   0.000000   0.000000
   21       28.816575     28.816575   0.000000   0.000000
   22       29.994388     29.994389   0.000000   0.000000
   23       30.290733     30.290733   0.000000   0.000000
   24       30.290733     30.290733   0.000000   0.000000
   25       30.807366     30.807366   0.000000   0.000000
   26       30.807367     30.807366   0.000000   0.000000
   27       31.713865     31.713868   0.000000   0.000000
   28       35.133003     35.133004   0.000000   0.000000
   29       35.133003     35.133004   0.000000   0.000000
   30       35.326774     35.326771   0.000000   0.000000
   31       35.326774     35.326771   0.000000   0.000000
   32       36.160175     36.160173   0.000000   0.000000
   33       37.262141     37.262140   0.000000   0.000000
   34       37.408180     37.408182   0.000000   0.000000
   35       42.524253     42.524253   0.000000   0.000000
   36       42.524274     42.524260   0.000000   0.000000
   37       42.785852     42.785825   0.000000   0.000000
   38       43.722328     43.722317   0.000000   0.000000
   39       43.722385     43.722329   0.000000   0.000000
   40       44.731759     44.731513   0.000000   0.000000
   41       48.122288     48.122239   0.000000   0.000000
   42       48.126102     48.124286   0.000000   0.000000
   43       49.454307     49.453557   0.000000   0.000000
   44       49.459490     49.457812   0.000000   0.000000
   45       50.246021     50.240680   0.000000   0.000000
   46       52.423694     52.396625   0.000000   0.000000
   47       52.905188     52.900687   0.000000   0.000000
   48       53.145109     52.919415   0.000000   0.000000
   49       54.248572     54.254915   0.000000   0.000000
   50       54.630580     54.376682   0.000000   0.000000
   51       55.499888     54.833509   0.000000   0.000000
   52       56.194239     56.201382   0.000000   0.000000
   53       58.081947     56.931027   0.000000   0.000000
   54       59.285649     58.303570   0.000000   0.000000
 
  0.1666667E+00  0.1666667E+00  0.0000000E+00  0.2777778E-01
    1       -8.495609     -8.495609   1.000000   1.000000
    2        0.636142      0.636142   1.000000   1.000000
    3        2.246434      2.246435   1.000000   1.000000
    4        2.246434      2.246435   1.000000   1.000000
    5        5.292717      5.292718   0.000000   0.000000
    6        6.540731      6.540731   0.000000   0.000000
    7        8.043505      8.043506   0.000000   0.000000
    8        8.043505      8.043506   0.000000   0.000000
    9       10.718380     10.718379   0.000000   0.000000
   10       12.270956     12.270955   0.000000   0.000000
   11       13.672742     13.672743   0.000000   0.000000
   12       15.551432     15.551430   0.000000   0.000000
   13       15.551432     15.551430   0.000000   0.000000
   14       16.399220     16.399221   0.000000   0.000000
   15       21.295350     21.295350   0.000000   0.000000
   16       23.585035     23.585034   0.000000   0.000000
   17       23.585035     23.585034   0.000000   0.000000
   18       24.786839     24.786841   0.000000   0.000000
   19       25.281549     25.281550   0.000000   0.000000
   20       28.704695     28.704692   0.000000   0.000000
   21       29.932818     29.932819   0.000000   0.000000
   22       29.932818     29.932819   0.000000   0.000000
   23       31.402986     31.402987   0.000000   0.000000
   24       34.815421     34.815420   0.000000   0.000000
   25       34.815421     34.815421   0.000000   0.000000
   26       35.056306     35.056305   0.000000   0.000000
   27       35.056307     35.056306   0.000000   0.000000
   28       35.412234     35.412235   0.000000   0.000000
   29       35.463374     35.463376   0.000000   0.000000
   30       36.303422     36.303421   0.000000   0.000000
   31       37.824277     37.824276   0.000000   0.000000
   32       40.416619     40.416622   0.000000   0.000000
   33       40.416632     40.416627   0.000000   0.000000
   34       40.637157     40.637153   0.000000   0.000000
   35       41.296897     41.296901   0.000000   0.000000
   36       41.628943     41.628991   0.000000   0.000000
   37       42.062714     42.062708   0.000000   0.000000
   38       42.062884     42.062796   0.000000   0.000000
   39       42.676164     42.676178   0.000000   0.000000
   40       45.211567     45.212302   0.000000   0.000000
   41       45.649488     45.649606   0.000000   0.000000
   42       45.652783     45.650997   0.000000   0.000000
   43       46.307240     46.305034   0.000000   0.000000
   44       47.254042     47.250883   0.000000   0.000000
   45       47.903897     47.899223   0.000000   0.000000
   46       47.920868     47.930954   0.000000   0.000000
   47       48.672552     48.672628   0.000000   0.000000
   48       48.717152     48.704157   0.000000   0.000000
   49       48.916899     48.893726   0.000000   0.000000
   50       49.966044     49.941817   0.000000   0.000000
   51       50.359268     50.328130   0.000000   0.000000
   52       51.684119     51.576961   0.000000   0.000000
   53       53.099437     53.074265   0.000000   0.000000
   54       56.375741     53.240261   0.000000   0.000000
 
  0.3333333E+00  0.1666667E+00  0.0000000E+00  0.1111111E+00
    1       -7.744102     -7.744102   1.000000   1.000000
    2       -1.647653     -1.647652   1.000000   1.000000
    3        1.295460      1.295461   1.000000   1.000000
    4        1.623387      1.623388   1.000000   1.000000
    5        5.517770      5.517770   0.000000   0.000000
    6        6.859575      6.859575   0.000000   0.000000
    7        8.689021      8.689021   0.000000   0.000000
    8        8.939672      8.939673   0.000000   0.000000
    9       12.255343     12.255342   0.000000   0.000000
   10       13.532564     13.532563   0.000000   0.000000
   11       14.011424     14.011425   0.000000   0.000000
   12       15.854459     15.854458   0.000000   0.000000
   13       18.219016     18.219016   0.000000   0.000000
   14       19.422144     19.422143   0.000000   0.000000
   15       19.750678     19.750679   0.000000   0.000000
   16       20.031324     20.031323   0.000000   0.000000
   17       23.922846     23.922847   0.000000   0.000000
   18       24.855436     24.855437   0.000000   0.000000
   19       25.030037     25.030037   0.000000   0.000000
   20       26.376026     26.376025   0.000000   0.000000
   21       29.088468     29.088468   0.000000   0.000000
   22       30.560711     30.560711   0.000000   0.000000
   23       30.944112     30.944111   0.000000   0.000000
   24       32.184037     32.184036   0.000000   0.000000
   25       32.218963     32.218962   0.000000   0.000000
   26       33.364972     33.364972   0.000000   0.000000
   27       34.862379     34.862378   0.000000   0.000000
   28       34.942180     34.942179   0.000000   0.000000
   29       35.627843     35.627842   0.000000   0.000000
   30       35.909179     35.909180   0.000000   0.000000
   31       37.741626     37.741625   0.000000   0.000000
   32       37.884565     37.884565   0.000000   0.000000
   33       38.962230     38.962228   0.000000   0.000000
   34       39.871314     39.871314   0.000000   0.000000
   35       39.892574     39.892573   0.000000   0.000000
   36       41.276260     41.276251   0.000000   0.000000
   37       42.469908     42.469915   0.000000   0.000000
   38       43.579781     43.579715   0.000000   0.000000
   39       44.685295     44.685079   0.000000   0.000000
   40       44.852727     44.852841   0.000000   0.000000
   41       45.485572     45.485405   0.000000   0.000000
   42       45.821001     45.820882   0.000000   0.000000
   43       46.483939     46.483571   0.000000   0.000000
   44       47.474138     47.473876   0.000000   0.000000
   45       48.233840     48.233456   0.000000   0.000000
   46       48.654279     48.658389   0.000000   0.000000
   47       51.103736     51.079036   0.000000   0.000000
   48       51.606808     51.632450   0.000000   0.000000
   49       51.773646     51.743303   0.000000   0.000000
   50       52.440999     52.416847   0.000000   0.000000
   51       53.962769     54.072649   0.000000   0.000000
   52       55.711394     55.914832   0.000000   0.000000
   53       56.934464     57.934970   0.000000   0.000000
   54       57.846830     58.773070   0.000000   0.000000
 
  0.5000000E+00  0.1666667E+00  0.0000000E+00  0.1111111E+00
    1       -6.680700     -6.680699   1.000000   1.000000
    2       -3.661198     -3.661198   1.000000   1.000000
    3        0.477508      0.477509   1.000000   1.000000
    4        1.549859      1.549860   1.000000   1.000000
    5        5.407155      5.407155   0.000000   0.000000
    6        7.520785      7.520785   0.000000   0.000000
    7        8.666438      8.666438   0.000000   0.000000
    8       10.154516     10.154517   0.000000   0.000000
    9       13.025930     13.025930   0.000000   0.000000
   10       14.851763     14.851762   0.000000   0.000000
   11       14.956505     14.956505   0.000000   0.000000
   12       15.577354     15.577353   0.000000   0.000000
   13       16.609611     16.609613   0.000000   0.000000
   14       20.010610     20.010610   0.000000   0.000000
   15       21.653998     21.653998   0.000000   0.000000
   16       22.532781     22.532780   0.000000   0.000000
   17       23.735107     23.735108   0.000000   0.000000
   18       24.539731     24.539731   0.000000   0.000000
   19       25.464928     25.464929   0.000000   0.000000
   20       26.468822     26.468822   0.000000   0.000000
   21       26.960282     26.960281   0.000000   0.000000
   22       29.333054     29.333054   0.000000   0.000000
   23       29.389997     29.389997   0.000000   0.000000
   24       30.425073     30.425071   0.000000   0.000000
   25       30.586391     30.586391   0.000000   0.000000
   26       31.427594     31.427595   0.000000   0.000000
   27       32.390543     32.390544   0.000000   0.000000
   28       32.968326     32.968326   0.000000   0.000000
   29       34.828705     34.828704   0.000000   0.000000
   30       36.145627     36.145628   0.000000   0.000000
   31       36.395091     36.395092   0.000000   0.000000
   32       37.385354     37.385353   0.000000   0.000000
   33       38.504778     38.504776   0.000000   0.000000
   34       39.438199     39.438199   0.000000   0.000000
   35       40.180460     40.180459   0.000000   0.000000
   36       42.080055     42.080057   0.000000   0.000000
   37       42.958419     42.958430   0.000000   0.000000
   38       44.298136     44.298093   0.000000   0.000000
   39       46.346944     46.346848   0.000000   0.000000
   40       46.971765     46.972002   0.000000   0.000000
   41       47.148438     47.147588   0.000000   0.000000
   42       47.774590     47.774869   0.000000   0.000000
   43       48.482859     48.481934   0.000000   0.000000
   44       48.844992     48.846473   0.000000   0.000000
   45       49.196493     49.197282   0.000000   0.000000
   46       50.902706     50.922082   0.000000   0.000000
   47       51.124802     51.122420   0.000000   0.000000
   48       52.936089     52.950676   0.000000   0.000000
   49       53.226219     53.208302   0.000000   0.000000
   50       54.011860     53.865448   0.000000   0.000000
   51       56.355526     56.037110   0.000000   0.000000
   52       57.074430     56.313030   0.000000   0.000000
   53       57.946109     57.808108   0.000000   0.000000
   54       58.862183     59.510848   0.000000   0.000000
 
 -0.3333333E+00  0.1666667E+00  0.0000000E+00  0.1111111E+00
    1       -7.017859     -7.017858   1.000000   1.000000
    2       -3.115053     -3.115053   1.000000   1.000000
    3        0.260211      0.260212   1.000000   1.000000
    4        2.038678      2.038679   1.000000   1.000000
    5        5.551601      5.551601   0.000000   0.000000
    6        7.789312      7.789312   0.000000   0.000000
    7        8.121643      8.121644   0.000000   0.000000
    8       10.473278     10.473278   0.000000   0.000000
    9       12.120145     12.120145   0.000000   0.000000
   10       12.905339     12.905338   0.000000   0.000000
   11       14.841045     14.841044   0.000000   0.000000
   12       16.489811     16.489811   0.000000   0.000000
   13       18.297708     18.297708   0.000000   0.000000
   14       19.986028     19.986028   0.000000   0.000000
   15       20.046193     20.046194   0.000000   0.000000
   16       21.636225     21.636225   0.000000   0.000000
   17       24.195799     24.195799   0.000000   0.000000
   18       25.503688     25.503688   0.000000   0.000000
   19       26.172080     26.172081   0.000000   0.000000
   20       26.419082     26.419082   0.000000   0.000000
   21       27.583874     27.583874   0.000000   0.000000
   22       27.599820     27.599820   0.000000   0.000000
   23       30.347392     30.347392   0.000000   0.000000
   24       30.702328     30.702328   0.000000   0.000000
   25       31.252208     31.252208   0.000000   0.000000
   26       31.422604     31.422604   0.000000   0.000000
   27       31.455342     31.455341   0.000000   0.000000
   28       35.108261     35.108262   0.000000   0.000000
   29       35.756968     35.756968   0.000000   0.000000
   30       36.331468     36.331470   0.000000   0.000000
   31       36.680717     36.680717   0.000000   0.000000
   32       37.911115     37.911113   0.000000   0.000000
   33       38.249196     38.249195   0.000000   0.000000
   34       39.100061     39.100062   0.000000   0.000000
   35       39.937728     39.937729   0.000000   0.000000
   36       41.927871     41.927873   0.000000   0.000000
   37       42.572574     42.572575   0.000000   0.000000
   38       43.134645     43.134648   0.000000   0.000000
   39       43.423979     43.423972   0.000000   0.000000
   40       45.920652     45.920741   0.000000   0.000000
   41       47.629610     47.629944   0.000000   0.000000
   42       47.997264     47.997040   0.000000   0.000000
   43       49.137721     49.137553   0.000000   0.000000
   44       49.826719     49.830574   0.000000   0.000000
   45       49.989348     49.991266   0.000000   0.000000
   46       50.863944     50.863002   0.000000   0.000000
   47       52.125728     52.121790   0.000000   0.000000
   48       52.978242     53.045226   0.000000   0.000000
   49       53.257489     53.202024   0.000000   0.000000
   50       53.893888     53.874265   0.000000   0.000000
   51       54.601170     54.655962   0.000000   0.000000
   52       56.045956     55.705116   0.000000   0.000000
   53       56.721825     56.652076   0.000000   0.000000
   54       58.134298     57.661767   0.000000   0.000000
 
 -0.1666667E+00  0.1666667E+00  0.0000000E+00  0.5555556E-01
    1       -8.067603     -8.067602   1.000000   1.000000
    2       -0.942175     -0.942174   1.000000   1.000000
    3        1.014267      1.014268   1.000000   1.000000
    4        2.832082      2.832084   1.000000   1.000000
    5        5.732006      5.732006   0.000000   0.000000
    6        7.205441      7.205442   0.000000   0.000000
    7        7.501804      7.501804   0.000000   0.000000
    8        8.856624      8.856624   0.000000   0.000000
    9       11.134808     11.134808   0.000000   0.000000
   10       13.165218     13.165218   0.000000   0.000000
   11       13.184034     13.184033   0.000000   0.000000
   12       15.594597     15.594598   0.000000   0.000000
   13       16.870587     16.870584   0.000000   0.000000
   14       19.349973     19.349973   0.000000   0.000000
   15       20.172597     20.172597   0.000000   0.000000
   16       22.476164     22.476166   0.000000   0.000000
   17       23.919165     23.919164   0.000000   0.000000
   18       24.511940     24.511940   0.000000   0.000000
   19       24.551272     24.551272   0.000000   0.000000
   20       26.460231     26.460232   0.000000   0.000000
   21       30.168615     30.168617   0.000000   0.000000
   22       30.742475     30.742475   0.000000   0.000000
   23       31.735317     31.735317   0.000000   0.000000
   24       32.807317     32.807318   0.000000   0.000000
   25       33.188359     33.188358   0.000000   0.000000
   26       33.816631     33.816628   0.000000   0.000000
   27       34.707643     34.707642   0.000000   0.000000
   28       35.686774     35.686775   0.000000   0.000000
   29       36.199615     36.199616   0.000000   0.000000
   30       36.544960     36.544959   0.000000   0.000000
   31       36.836396     36.836397   0.000000   0.000000
   32       38.495449     38.495450   0.000000   0.000000
   33       39.431304     39.431302   0.000000   0.000000
   34       39.754506     39.754507   0.000000   0.000000
   35       39.998211     39.998212   0.000000   0.000000
   36       40.615687     40.615685   0.000000   0.000000
   37       41.849379     41.849387   0.000000   0.000000
   38       42.114400     42.114398   0.000000   0.000000
   39       43.714747     43.714744   0.000000   0.000000
   40       44.714680     44.714931   0.000000   0.000000
   41       45.411476     45.411202   0.000000   0.000000
   42       46.006372     46.006368   0.000000   0.000000
   43       46.955500     46.954352   0.000000   0.000000
   44       48.095099     48.095458   0.000000   0.000000
   45       48.195450     48.195668   0.000000   0.000000
   46       48.897971     48.915175   0.000000   0.000000
   47       49.684680     49.739017   0.000000   0.000000
   48       49.789954     49.780850   0.000000   0.000000
   49       52.439421     52.437519   0.000000   0.000000
   50       53.425532     53.422208   0.000000   0.000000
   51       54.148461     54.152569   0.000000   0.000000
   52       55.133445     54.847881   0.000000   0.000000
   53       56.128189     56.267834   0.000000   0.000000
   54       57.172326     57.472225   0.000000   0.000000
 
  0.3333333E+00  0.3333333E+00  0.0000000E+00  0.2777778E-01
    1       -7.177327     -7.177326   1.000000   1.000000
    2       -2.387891     -2.387891   1.000000   1.000000
    3        0.912939      0.912940   1.000000   1.000000
    4        0.912939      0.912940   1.000000   1.000000
    5        4.428580      4.428580  -0.000000  -0.000000
    6        5.761159      5.761159   0.000000   0.000000
    7       10.960833     10.960834   0.000000   0.000000
    8       10.960833     10.960834   0.000000   0.000000
    9       12.291013     12.291012   0.000000   0.000000
   10       15.055358     15.055359   0.000000   0.000000
   11       15.628060     15.628059   0.000000   0.000000
   12       18.320682     18.320682   0.000000   0.000000
   13       18.320682     18.320682   0.000000   0.000000
   14       18.832274     18.832277   0.000000   0.000000
   15       19.199099     19.199098   0.000000   0.000000
   16       19.199099     19.199098   0.000000   0.000000
   17       20.616936     20.616938   0.000000   0.000000