       N       E                     dE             d eps       ncg     rms          ort
DAV:   1     0.866904973837E+01    0.86690E+01   -0.43697E+03   864   0.143E+02
DAV:   2    -0.106911646579E+02   -0.19360E+02   -0.17864E+02   864   0.271E+01
DAV:   3    -0.115876095243E+02   -0.89644E+00   -0.88177E+00   864   0.590E+00
DAV:   4    -0.116146562458E+02   -0.27047E-01   -0.26935E-01   864   0.104E+00
DAV:   5    -0.116155687467E+02   -0.91250E-03   -0.91110E-03   864   0.191E-01
SDA:   6    -0.112736306075E+02    0.34194E+00   -0.23473E-01   864   0.587E-01 0.000E+00
DMP:   7    -0.112940402132E+02   -0.20410E-01   -0.19640E-01   864   0.325E-01 0.434E-01
DMP:   8    -0.113100308219E+02   -0.15991E-01   -0.10211E-01   864   0.137E-01 0.309E-01
DMP:   9    -0.113180616412E+02   -0.80308E-02   -0.43374E-02   864   0.524E-02 0.147E-01
DMP:  10    -0.113214181706E+02   -0.33565E-02   -0.16896E-02   864   0.195E-02 0.597E-02
DMP:  11    -0.113227049619E+02   -0.12868E-02   -0.59434E-03   864   0.638E-03 0.222E-02
DMP:  12    -0.113231401279E+02   -0.43517E-03   -0.16940E-03   864   0.159E-03 0.693E-03
DMP:  13    -0.113232556876E+02   -0.11556E-03   -0.36303E-04   864   0.319E-04 0.154E-03
DMP:  14    -0.113232782478E+02   -0.22560E-04   -0.80416E-05   864   0.119E-04 0.215E-04
   1 F= -.11323278E+02 E0= -.11323292E+02  d E =0.402632E-04  mag=     0.0000
