       N       E                     dE             d eps       ncg     rms          ort
DAV:   1    -0.364329062095E+01   -0.36433E+01   -0.48470E+03   896   0.138E+02
DAV:   2    -0.104658207650E+02   -0.68225E+01   -0.68161E+01   896   0.127E+01
DAV:   3    -0.104962555061E+02   -0.30435E-01   -0.30434E-01   896   0.113E+00
DAV:   4    -0.104964858868E+02   -0.23038E-03   -0.23038E-03   896   0.902E-02
DAV:   5    -0.104964863710E+02   -0.48418E-06   -0.48447E-06   896   0.457E-03
SDA:   6    -0.102560748343E+02    0.24041E+00   -0.17364E-01   896   0.434E-01 0.000E+00
DMP:   7    -0.102712653635E+02   -0.15191E-01   -0.14843E-01   896   0.247E-01 0.326E-01
DMP:   8    -0.102834568610E+02   -0.12191E-01   -0.79365E-02   896   0.107E-01 0.239E-01
DMP:   9    -0.102897448180E+02   -0.62880E-02   -0.34101E-02   896   0.408E-02 0.116E-01
DMP:  10    -0.102923844340E+02   -0.26396E-02   -0.12934E-02   896   0.144E-02 0.469E-02
DMP:  11    -0.102933622188E+02   -0.97778E-03   -0.43258E-03   896   0.445E-03 0.167E-02
DMP:  12    -0.102936755069E+02   -0.31329E-03   -0.11751E-03   896   0.107E-03 0.489E-03
DMP:  13    -0.102937543882E+02   -0.78881E-04   -0.24123E-04   896   0.214E-04 0.102E-03
   1 F= -.10293754E+02 E0= -.10293768E+02  d E =0.402632E-04
