 vasp.5.4.4.18Apr17-6-g9f103f2a35 (build Nov 08 2017 12:56:59) complex          
  
 executed on             LinuxIFC date 2020.06.23  11:36:59
 running on   56 total cores
 distrk:  each k-point on   56 cores,    1 groups
 distr:  one band on NCORES_PER_BAND=   1 cores,   56 groups


--------------------------------------------------------------------------------------------------------


 INCAR:
 POTCAR:    PAW_PBE Ge 05Jan2001                  

 ----------------------------------------------------------------------------- 
|                                                                             |
|           W    W    AA    RRRRR   N    N  II  N    N   GGGG   !!!           |
|           W    W   A  A   R    R  NN   N  II  NN   N  G    G  !!!           |
|           W    W  A    A  R    R  N N  N  II  N N  N  G       !!!           |
|           W WW W  AAAAAA  RRRRR   N  N N  II  N  N N  G  GGG   !            |
|           WW  WW  A    A  R   R   N   NN  II  N   NN  G    G                |
|           W    W  A    A  R    R  N    N  II  N    N   GGGG   !!!           |
|                                                                             |
|      For optimal performance we recommend to set                            |
|        NCORE= 4 - approx SQRT( number of cores)                             |
|      NCORE specifies how many cores store one orbital (NPAR=cpu/NCORE).     |
|      This setting can  greatly improve the performance of VASP for DFT.     |
|      The default,   NCORE=1            might be grossly inefficient         |
|      on modern multi-core architectures or massively parallel machines.     |
|      Do your own testing !!!!                                               |
|      Unfortunately you need to use the default for GW and RPA calculations. |
|      (for HF NCORE is supported but not extensively tested yet)             |
|                                                                             |
 ----------------------------------------------------------------------------- 

 POTCAR:    PAW_PBE Ge 05Jan2001                  
   VRHFIN =Ge: s2p2                                                             
   LEXCH  = PE                                                                  
   EATOM  =   104.9960 eV,    7.7170 Ry                                         
                                                                                
   TITEL  = PAW_PBE Ge 05Jan2001                                                
   LULTRA =        F    use ultrasoft PP ?                                      
   IUNSCR =        1    unscreen: 0-lin 1-nonlin 2-no                           
   RPACOR =    2.170    partial core radius                                     
   POMASS =   72.610; ZVAL   =    4.000    mass and valenz                      
   RCORE  =    2.300    outmost cutoff radius                                   
   RWIGS  =    2.300; RWIGS  =    1.217    wigner-seitz radius (au A)           
   ENMAX  =  173.807; ENMIN  =  130.355 eV                                      
   ICORE  =        3    local potential                                         
   LCOR   =        T    correct aug charges                                     
   LPAW   =        T    paw PP                                                  
   EAUG   =  385.843                                                            
   DEXC   =    0.000                                                            
   RMAX   =    2.342    core radius for proj-oper                               
   RAUG   =    1.300    factor for augmentation sphere                          
   RDEP   =    2.318    radius for radial grids                                 
   RDEPT  =    2.103    core radius for aug-charge                              
                                                                                
   Atomic configuration                                                         
   10 entries                                                                   
     n  l   j            E        occ.                                          
     1  0  0.50    -10959.8463   2.0000                                         
     2  0  0.50     -1371.6056   2.0000                                         
     2  1  1.50     -1198.4791   6.0000                                         
     3  0  0.50      -168.4733   2.0000                                         
     3  1  1.50      -115.6019   6.0000                                         
     3  2  2.50       -29.3106  10.0000                                         
     4  0  0.50       -11.7309   2.0000                                         
     4  1  0.50        -3.8952   2.0000                                         
     4  2  1.50        -4.0817   0.0000                                         
     4  3  2.50        -4.0817   0.0000                                         
   Description                                                                  
     l       E           TYP  RCUT    TYP  RCUT                                 
     0    -11.7309493     23  2.300                                             
     0     -7.4578696     23  2.300                                             
     1     -3.8952261     23  2.300                                             
     1      6.1178114     23  2.300                                             
     2     -4.0817478     23  2.300                                             
     3     -1.3605826      7  2.300                                             
  local pseudopotential read in
  partial core-charges read in
  partial kinetic energy density read in
  atomic valenz-charges read in
  non local Contribution for L=           0  read in
    real space projection operators read in
  non local Contribution for L=           0  read in
    real space projection operators read in
  non local Contribution for L=           1  read in
    real space projection operators read in
  non local Contribution for L=           1  read in
    real space projection operators read in
  non local Contribution for L=           2  read in
    real space projection operators read in
    PAW grid and wavefunctions read in
 
   number of l-projection  operators is LMAX  =           5
   number of lm-projection operators is LMMAX =          13
 
  PAW_PBE Ge 05Jan2001                  :
 energy of atom  1       EATOM= -104.9960
 kinetic energy error for atom=    0.0003 (will be added to EATOM!!)
 
 
 POSCAR: Ge                                      
  positions in direct lattice
  No initial velocities read in
 exchange correlation table for  LEXCH =        8
   RHO(1)=    0.500       N(1)  =     2000
   RHO(2)=  100.500       N(2)  =     4000
 


--------------------------------------------------------------------------------------------------------


 ion  position               nearest neighbor table
   1  0.000  0.000  0.000-   2 2.44   2 2.44   2 2.44   2 2.44
   2  0.250  0.250  0.250-   1 2.44   1 2.44   1 2.44   1 2.44
 
  LATTYP: Found a face centered cubic cell.
 ALAT       =     5.6330000000
  
  Lattice vectors:
  
 A1 = (   0.0000000000,   2.8165000000,   2.8165000000)
 A2 = (   2.8165000000,   0.0000000000,   2.8165000000)
 A3 = (   2.8165000000,   2.8165000000,   0.0000000000)


Analysis of symmetry for initial positions (statically):
=====================================================================
 Subroutine PRICEL returns:
 Original cell was already a primitive cell.
 

 Routine SETGRP: Setting up the symmetry group for a 
 face centered cubic supercell.


 Subroutine GETGRP returns: Found 48 space group operations
 (whereof 24 operations were pure point group operations)
 out of a pool of 48 trial point group operations.


The static configuration has the point symmetry T_d .
 The point group associated with its full space group is O_h .


Analysis of symmetry for dynamics (positions and initial velocities):
=====================================================================
 Subroutine PRICEL returns:
 Original cell was already a primitive cell.
 

 Routine SETGRP: Setting up the symmetry group for a 
 face centered cubic supercell.


 Subroutine GETGRP returns: Found 48 space group operations
 (whereof 24 operations were pure point group operations)
 out of a pool of 48 trial point group operations.


The dynamic configuration has the point symmetry T_d .
 The point group associated with its full space group is O_h .


 Subroutine INISYM returns: Found 48 space group operations
 (whereof 24 operations are pure point group operations),
 and found     1 'primitive' translations

 
 
 KPOINTS: KPOINTS created by Atomic Simulation Env

Automatic generation of k-mesh.
Space group operators:
 irot       det(A)        alpha          n_x          n_y          n_z        tau_x        tau_y        tau_z
    1     1.000000     0.000000     1.000000     0.000000     0.000000     0.000000     0.000000     0.000000
    2     1.000000   120.000000    -0.577350    -0.577350    -0.577350     0.000000     0.000000     0.000000
    3     1.000000   120.000000     0.577350     0.577350     0.577350     0.000000     0.000000     0.000000
    4    -1.000000    90.000000     0.000000     0.000000    -1.000000     0.000000     0.000000     0.000000
    5    -1.000000   180.000000     0.000000     0.707107     0.707107     0.000000     0.000000     0.000000
    6    -1.000000    90.000000     0.000000     1.000000     0.000000     0.000000     0.000000     0.000000
    7     1.000000   180.000000     0.000000     0.000000     1.000000     0.000000     0.000000     0.000000
    8     1.000000   120.000000    -0.577350     0.577350     0.577350     0.000000     0.000000     0.000000
    9     1.000000   120.000000    -0.577350     0.577350    -0.577350     0.000000     0.000000     0.000000
   10    -1.000000    90.000000     0.000000     0.000000     1.000000     0.000000     0.000000     0.000000
   11    -1.000000    90.000000    -1.000000     0.000000     0.000000     0.000000     0.000000     0.000000
   12    -1.000000   180.000000     0.707107     0.000000     0.707107     0.000000     0.000000     0.000000
   13     1.000000   120.000000     0.577350    -0.577350     0.577350     0.000000     0.000000     0.000000
   14     1.000000   120.000000    -0.577350    -0.577350     0.577350     0.000000     0.000000     0.000000
   15     1.000000   180.000000     1.000000     0.000000     0.000000     0.000000     0.000000     0.000000
   16    -1.000000    90.000000     0.000000    -1.000000     0.000000     0.000000     0.000000     0.000000
   17    -1.000000   180.000000     0.707107     0.707107     0.000000     0.000000     0.000000     0.000000
   18    -1.000000    90.000000     1.000000     0.000000     0.000000     0.000000     0.000000     0.000000
   19     1.000000   120.000000     0.577350    -0.577350    -0.577350     0.000000     0.000000     0.000000
   20     1.000000   180.000000     0.000000     1.000000     0.000000     0.000000     0.000000     0.000000
   21     1.000000   120.000000     0.577350     0.577350    -0.577350     0.000000     0.000000     0.000000
   22    -1.000000   180.000000     0.000000    -0.707107     0.707107     0.000000     0.000000     0.000000
   23    -1.000000   180.000000     0.707107    -0.707107     0.000000     0.000000     0.000000     0.000000
   24    -1.000000   180.000000     0.707107     0.000000    -0.707107     0.000000     0.000000     0.000000
   25    -1.000000     0.000000     1.000000     0.000000     0.000000     0.250000     0.250000     0.250000
   26    -1.000000   120.000000    -0.577350    -0.577350    -0.577350     0.250000     0.250000     0.250000
   27    -1.000000   120.000000     0.577350     0.577350     0.577350     0.250000     0.250000     0.250000
   28     1.000000    90.000000     0.000000     0.000000    -1.000000     0.250000     0.250000     0.250000
   29     1.000000   180.000000     0.000000     0.707107     0.707107     0.250000     0.250000     0.250000
   30     1.000000    90.000000     0.000000     1.000000     0.000000     0.250000     0.250000     0.250000
   31    -1.000000   180.000000     0.000000     0.000000     1.000000     0.250000     0.250000     0.250000
   32    -1.000000   120.000000    -0.577350     0.577350     0.577350     0.250000     0.250000     0.250000
   33    -1.000000   120.000000    -0.577350     0.577350    -0.577350     0.250000     0.250000     0.250000
   34     1.000000    90.000000     0.000000     0.000000     1.000000     0.250000     0.250000     0.250000
   35     1.000000    90.000000    -1.000000     0.000000     0.000000     0.250000     0.250000     0.250000
   36     1.000000   180.000000     0.707107     0.000000     0.707107     0.250000     0.250000     0.250000
   37    -1.000000   120.000000     0.577350    -0.577350     0.577350     0.250000     0.250000     0.250000
   38    -1.000000   120.000000    -0.577350    -0.577350     0.577350     0.250000     0.250000     0.250000
   39    -1.000000   180.000000     1.000000     0.000000     0.000000     0.250000     0.250000     0.250000
   40     1.000000    90.000000     0.000000    -1.000000     0.000000     0.250000     0.250000     0.250000
   41     1.000000   180.000000     0.707107     0.707107     0.000000     0.250000     0.250000     0.250000
   42     1.000000    90.000000     1.000000     0.000000     0.000000     0.250000     0.250000     0.250000
   43    -1.000000   120.000000     0.577350    -0.577350    -0.577350     0.250000     0.250000     0.250000
   44    -1.000000   180.000000     0.000000     1.000000     0.000000     0.250000     0.250000     0.250000
   45    -1.000000   120.000000     0.577350     0.577350    -0.577350     0.250000     0.250000     0.250000
   46     1.000000   180.000000     0.000000    -0.707107     0.707107     0.250000     0.250000     0.250000
   47     1.000000   180.000000     0.707107    -0.707107     0.000000     0.250000     0.250000     0.250000
   48     1.000000   180.000000     0.707107     0.000000    -0.707107     0.250000     0.250000     0.250000
 
 Subroutine IBZKPT returns following result:
 ===========================================
 
 Found     16 irreducible k-points:
 
 Following reciprocal coordinates:
            Coordinates               Weight
  0.000000  0.000000  0.000000      1.000000
  0.166667  0.000000  0.000000      8.000000
  0.333333  0.000000  0.000000      8.000000
  0.500000  0.000000  0.000000      4.000000
  0.166667  0.166667  0.000000      6.000000
  0.333333  0.166667  0.000000     24.000000
  0.500000  0.166667  0.000000     24.000000
 -0.333333  0.166667  0.000000     24.000000
 -0.166667  0.166667  0.000000     12.000000
  0.333333  0.333333  0.000000      6.000000
  0.500000  0.333333  0.000000     24.000000
 -0.333333  0.333333  0.000000     12.000000
  0.500000  0.500000  0.000000      3.000000
  0.500000  0.333333  0.166667     24.000000
 -0.333333  0.333333  0.166667     24.000000
 -0.333333  0.500000  0.166667     12.000000
 
 Following cartesian coordinates:
            Coordinates               Weight
  0.000000  0.000000  0.000000      1.000000
 -0.029588  0.029588  0.029588      8.000000
 -0.059175  0.059175  0.059175      8.000000
 -0.088763  0.088763  0.088763      4.000000
  0.000000  0.000000  0.059175      6.000000
 -0.029588  0.029588  0.088763     24.000000
 -0.059175  0.059175  0.118350     24.000000
  0.088763 -0.088763 -0.029588     24.000000
  0.059175 -0.059175  0.000000     12.000000
  0.000000  0.000000  0.118350      6.000000
 -0.029588  0.029588  0.147938     24.000000
  0.118350 -0.118350  0.000000     12.000000
  0.000000  0.000000  0.177525      3.000000
  0.000000  0.059175  0.118350     24.000000
  0.147938 -0.088763 -0.029588     24.000000
  0.177525 -0.118350 -0.000000     12.000000
 


--------------------------------------------------------------------------------------------------------




 Dimension of arrays:
   k-points           NKPTS =     16   k-points in BZ     NKDIM =     16   number of bands    NBANDS=     56
   number of dos      NEDOS =    301   number of ions     NIONS =      2
   non local maximal  LDIM  =      5   non local SUM 2l+1 LMDIM =     13
   total plane-waves  NPLWV =  13824
   max r-space proj   IRMAX =      1   max aug-charges    IRDMAX=  17012
   dimension x,y,z NGX =    24 NGY =   24 NGZ =   24
   dimension x,y,z NGXF=    48 NGYF=   48 NGZF=   48
   support grid    NGXF=    48 NGYF=   48 NGZF=   48
   ions per type =               2
   NGX,Y,Z   is equivalent  to a cutoff of  10.02, 10.02, 10.02 a.u.
   NGXF,Y,Z  is equivalent  to a cutoff of  20.03, 20.03, 20.03 a.u.

 SYSTEM =  unknown system                          
 POSCAR =  Ge                                      

 Startparameter for this run:
   NWRITE =      2    write-flag & timer
   PREC   = n         normal or accurate (medium, high low for compatibility)
   ISTART =      0    job   : 0-new  1-cont  2-samecut
   ICHARG =      2    charge: 1-file 2-atom 10-const
   ISPIN  =      1    spin polarized calculation?
   LNONCOLLINEAR =      F non collinear calculations
   LSORBIT =      F    spin-orbit coupling
   INIWAV =      1    electr: 0-lowe 1-rand  2-diag
   LASPH  =      F    aspherical Exc in radial PAW
   METAGGA=      F    non-selfconsistent MetaGGA calc.

 Electronic Relaxation 1
   ENCUT  =  450.0 eV  33.07 Ry    5.75 a.u.   6.89  6.89  6.89*2*pi/ulx,y,z
   ENINI  =  450.0     initial cutoff
   ENAUG  =  385.8 eV  augmentation charge cutoff
   NELM   =     60;   NELMIN=  2; NELMDL= -5     # of ELM steps 
   EDIFF  = 0.1E-03   stopping-criterion for ELM
   LREAL  =      F    real-space projection
   NLSPLINE    = F    spline interpolate recip. space projectors
   LCOMPAT=      F    compatible to vasp.4.4
   GGA_COMPAT  = T    GGA compatible to vasp.4.4-vasp.4.6
   LMAXPAW     = -100 max onsite density
   LMAXMIX     =    2 max onsite mixed and CHGCAR
   VOSKOWN=      0    Vosko Wilk Nusair interpolation
   ROPT   =    0.00000
 Ionic relaxation
   EDIFFG = 0.1E-02   stopping-criterion for IOM
   NSW    =      0    number of steps for IOM
   NBLOCK =      1;   KBLOCK =      1    inner block; outer block 
   IBRION =     -1    ionic relax: 0-MD 1-quasi-New 2-CG
   NFREE  =      0    steps in history (QN), initial steepest desc. (CG)
   ISIF   =      2    stress and relaxation
   IWAVPR =     10    prediction:  0-non 1-charg 2-wave 3-comb
   ISYM   =      2    0-nonsym 1-usesym 2-fastsym
   LCORR  =      T    Harris-Foulkes like correction to forces

   POTIM  = 0.5000    time-step for ionic-motion
   TEIN   =    0.0    initial temperature
   TEBEG  =    0.0;   TEEND  =   0.0 temperature during run
   SMASS  =  -3.00    Nose mass-parameter (am)
   estimated Nose-frequenzy (Omega)   =  0.10E-29 period in steps =****** mass=  -0.363E-27a.u.
   SCALEE = 1.0000    scale energy and forces
   NPACO  =    256;   APACO  = 16.0  distance and # of slots for P.C.
   PSTRESS=    0.0 pullay stress

  Mass of Ions in am
   POMASS =  72.61
  Ionic Valenz
   ZVAL   =   4.00
  Atomic Wigner-Seitz radii
   RWIGS  =  -1.00
  virtual crystal weights 
   VCA    =   1.00
   NELECT =       8.0000    total number of electrons
   NUPDOWN=      -1.0000    fix difference up-down

 DOS related values:
   EMIN   =  10.00;   EMAX   =-10.00  energy-range for DOS
   EFERMI =   0.00
   ISMEAR =     1;   SIGMA  =   0.05  broadening in eV -4-tet -1-fermi 0-gaus

 Electronic relaxation 2 (details)
   IALGO  =     53    algorithm
   LDIAG  =      T    sub-space diagonalisation (order eigenvalues)
   LSUBROT=      F    optimize rotation matrix (better conditioning)
   TURBO    =      0    0=normal 1=particle mesh
   IRESTART =      0    0=no restart 2=restart with 2 vectors
   NREBOOT  =      0    no. of reboots
   NMIN     =      0    reboot dimension
   EREF     =   0.00    reference energy to select bands
   IMIX   =      4    mixing-type and parameters
     AMIX     =   0.40;   BMIX     =  1.00
     AMIX_MAG =   1.60;   BMIX_MAG =  1.00
     AMIN     =   0.10
     WC   =   100.;   INIMIX=   1;  MIXPRE=   1;  MAXMIX= -45

 Intra band minimization:
   WEIMIN = 0.0000     energy-eigenvalue tresh-hold
   EBREAK =  0.45E-06  absolut break condition
   DEPER  =   0.30     relativ break condition  

   TIME   =   0.40     timestep for ELM

  volume/ion in A,a.u.               =      22.34       150.77
  Fermi-wavevector in a.u.,A,eV,Ry     =   0.922681  1.743615 11.583196  0.851341
  Thomas-Fermi vector in A             =   2.048235
 
 Write flags
   LWAVE        =      T    write WAVECAR
   LDOWNSAMPLE  =      F    k-point downsampling of WAVECAR
   LCHARG       =      T    write CHGCAR
   LVTOT        =      F    write LOCPOT, total local potential
   LVHAR        =      F    write LOCPOT, Hartree potential only
   LELF         =      F    write electronic localiz. function (ELF)
   LORBIT       =      0    0 simple, 1 ext, 2 COOP (PROOUT), +10 PAW based schemes


 Dipole corrections
   LMONO  =      F    monopole corrections only (constant potential shift)
   LDIPOL =      F    correct potential (dipole corrections)
   IDIPOL =      0    1-x, 2-y, 3-z, 4-all directions 
   EPSILON=  1.0000000 bulk dielectric constant

 LDA+U is selected, type is set to LDAUTYPE =  2
   angular momentum for each species LDAUL =     1
   U (eV)           for each species LDAUU =  -1.4
   J (eV)           for each species LDAUJ =   0.0
 Exchange correlation treatment:
   GGA     =    PE    GGA type
   LEXCH   =     8    internal setting for exchange type
   VOSKOWN=      0    Vosko Wilk Nusair interpolation
   LHFCALC =     F    Hartree Fock is set to
   LHFONE  =     F    Hartree Fock one center treatment
   AEXX    =    0.0000 exact exchange contribution

 Linear response parameters
   LEPSILON=     F    determine dielectric tensor
   LRPA    =     F    only Hartree local field effects (RPA)
   LNABLA  =     F    use nabla operator in PAW spheres
   LVEL    =     F    velocity operator in full k-point grid
   LINTERFAST=   F  fast interpolation
   KINTER  =     0    interpolate to denser k-point grid
   CSHIFT  =0.1000    complex shift for real part using Kramers Kronig
   OMEGAMAX=  -1.0    maximum frequency
   DEG_THRESHOLD= 0.2000000E-02 threshold for treating states as degnerate
   RTIME   =   -0.100 relaxation time in fs
  (WPLASMAI=    0.000 imaginary part of plasma frequency in eV, 0.658/RTIME)
   DFIELD  = 0.0000000 0.0000000 0.0000000 field for delta impulse in time
 
 Orbital magnetization related:
   ORBITALMAG=     F  switch on orbital magnetization
   LCHIMAG   =     F  perturbation theory with respect to B field
   DQ        =  0.001000  dq finite difference perturbation B field
   LLRAUG    =     F  two centre corrections for induced B field



--------------------------------------------------------------------------------------------------------


 Static calculation
 charge density and potential will be updated during run
 non-spin polarized calculation
 Conjugate gradient for all bands (Freysoldt, et al. PRB 79, 241103 (2009))
 perform sub-space diagonalisation
    before iterative eigenvector-optimisation
 modified Broyden-mixing scheme, WC =      100.0
 initial mixing is a Kerker type mixing with AMIX =  0.4000 and BMIX =      1.0000
 Hartree-type preconditioning will be used
 using additional bands           52
 reciprocal scheme for non local part
 use partial core corrections
 no Harris-corrections to forces 
 use gradient corrections 
 use of overlap-Matrix (Vanderbilt PP)
 Methfessel and Paxton  Order N= 1 SIGMA  =   0.05


--------------------------------------------------------------------------------------------------------


  energy-cutoff  :      450.00
  volume of cell :       44.68
      direct lattice vectors                 reciprocal lattice vectors
     0.000000000  2.816500000  2.816500000    -0.177525297  0.177525297  0.177525297
     2.816500000  0.000000000  2.816500000     0.177525297 -0.177525297  0.177525297
     2.816500000  2.816500000  0.000000000     0.177525297  0.177525297 -0.177525297

  length of vectors
     3.983132498  3.983132498  3.983132498     0.307482835  0.307482835  0.307482835


 
 k-points in units of 2pi/SCALE and weight: KPOINTS created by Atomic Simulation Env
   0.00000000  0.00000000  0.00000000       0.005
  -0.02958755  0.02958755  0.02958755       0.037
  -0.05917510  0.05917510  0.05917510       0.037
  -0.08876265  0.08876265  0.08876265       0.019
   0.00000000  0.00000000  0.05917510       0.028
  -0.02958755  0.02958755  0.08876265       0.111
  -0.05917510  0.05917510  0.11835020       0.111
   0.08876265 -0.08876265 -0.02958755       0.111
   0.05917510 -0.05917510  0.00000000       0.056
   0.00000000  0.00000000  0.11835020       0.028
  -0.02958755  0.02958755  0.14793775       0.111
   0.11835020 -0.11835020  0.00000000       0.056
   0.00000000  0.00000000  0.17752530       0.014
   0.00000000  0.05917510  0.11835020       0.111
   0.14793775 -0.08876265 -0.02958755       0.111
   0.17752530 -0.11835020 -0.00000000       0.056
 
 k-points in reciprocal lattice and weights: KPOINTS created by Atomic Simulation Env
   0.00000000  0.00000000  0.00000000       0.005
   0.16666667  0.00000000  0.00000000       0.037
   0.33333333  0.00000000  0.00000000       0.037
   0.50000000  0.00000000  0.00000000       0.019
   0.16666667  0.16666667  0.00000000       0.028
   0.33333333  0.16666667  0.00000000       0.111
   0.50000000  0.16666667  0.00000000       0.111
  -0.33333333  0.16666667  0.00000000       0.111
  -0.16666667  0.16666667  0.00000000       0.056
   0.33333333  0.33333333  0.00000000       0.028
   0.50000000  0.33333333  0.00000000       0.111
  -0.33333333  0.33333333  0.00000000       0.056
   0.50000000  0.50000000  0.00000000       0.014
   0.50000000  0.33333333  0.16666667       0.111
  -0.33333333  0.33333333  0.16666667       0.111
  -0.33333333  0.50000000  0.16666667       0.056
 
 position of ions in fractional coordinates (direct lattice) 
   0.00000000  0.00000000  0.00000000
   0.25000000  0.25000000  0.25000000
 
 position of ions in cartesian coordinates  (Angst):
   0.00000000  0.00000000  0.00000000
   1.40825000  1.40825000  1.40825000
 


--------------------------------------------------------------------------------------------------------


 k-point  1 :   0.0000 0.0000 0.0000  plane waves:     941
 k-point  2 :   0.1667 0.0000 0.0000  plane waves:     956
 k-point  3 :   0.3333 0.0000 0.0000  plane waves:     968
 k-point  4 :   0.5000 0.0000 0.0000  plane waves:     978
 k-point  5 :   0.1667 0.1667 0.0000  plane waves:     966
 k-point  6 :   0.3333 0.1667 0.0000  plane waves:     965
 k-point  7 :   0.5000 0.1667 0.0000  plane waves:     972
 k-point  8 :  -0.3333 0.1667 0.0000  plane waves:     969
 k-point  9 :  -0.1667 0.1667 0.0000  plane waves:     961
 k-point 10 :   0.3333 0.3333 0.0000  plane waves:     962
 k-point 11 :   0.5000 0.3333 0.0000  plane waves:     975
 k-point 12 :  -0.3333 0.3333 0.0000  plane waves:     981
 k-point 13 :   0.5000 0.5000 0.0000  plane waves:     982
 k-point 14 :   0.5000 0.3333 0.1667  plane waves:     974
 k-point 15 :  -0.3333 0.3333 0.1667  plane waves:     960
 k-point 16 :  -0.3333 0.5000 0.1667  plane waves:     978

 maximum and minimum number of plane-waves per node :       982      941

 maximum number of plane-waves:       982
 maximum index in each direction: 
   IXMAX=    7   IYMAX=    6   IZMAX=    6
   IXMIN=   -7   IYMIN=   -7   IZMIN=   -7


 serial   3D FFT for wavefunctions
 parallel 3D FFT for charge:
    minimum data exchange during FFTs selected (reduces bandwidth)


 total amount of memory used by VASP MPI-rank0    33439. kBytes
=======================================================================

   base      :      30000. kBytes
   nonl-proj :       1709. kBytes
   fftplans  :        272. kBytes
   grid      :        626. kBytes
   one-center:         16. kBytes
   wavefun   :        816. kBytes
 
     INWAV:  cpu time    0.0000: real time    0.0001
 Broyden mixing: mesh for mixing (old mesh)
   NGX = 13   NGY = 13   NGZ = 13
  (NGX  = 48   NGY  = 48   NGZ  = 48)
  gives a total of   2197 points

 initial charge density was supplied:
 charge density of overlapping atoms calculated
 number of electron       8.0000000 magnetization 
 keeping initial charge density in first step


--------------------------------------------------------------------------------------------------------


 Maximum index for augmentation-charges          721 (set IRDMAX)


--------------------------------------------------------------------------------------------------------


 First call to EWALD:  gamma=   0.499
 Maximum number of real-space cells 3x 3x 3
 Maximum number of reciprocal cells 3x 3x 3

    FEWALD:  cpu time    0.0018: real time    0.0019


--------------------------------------- Iteration      1(   1)  ---------------------------------------


    POTLOK:  cpu time    0.0049: real time    0.0051
    SETDIJ:  cpu time    0.0046: real time    0.0046
    TRIAL :  cpu time    1.0775: real time    1.0785
    CORREC:  cpu time    0.0003: real time    0.0003
    --------------------------------------------
      LOOP:  cpu time    1.0883: real time    1.0915

 eigenvalue-minimisations  :  2688
 total energy-change (2. order) :-0.3643291E+01  (-0.4847004E+03)
 number of electron       8.0000000 magnetization 
 augmentation part        8.0000000 magnetization 

 Free energy of the ion-electron system (eV)
  ---------------------------------------------------
  alpha Z        PSCENC =        17.10940282
  Ewald energy   TEWEN  =      -220.32663596
  -Hartree energ DENC   =       -12.42928696
  -exchange      EXHF   =         0.00000000
  -V(xc)+E(xc)   XCENC  =       -14.98288157
  PAW double counting   =       176.29039040     -147.44509322
  entropy T*S    EENTRO =        -0.00018544
  eigenvalues    EBANDS =       -11.85045128
  atomic energy  EATOM  =       209.99145059
  ---------------------------------------------------
  free energy    TOTEN  =        -3.64329062 eV

  energy without entropy =       -3.64310518  energy(sigma->0) =       -3.64322881


--------------------------------------------------------------------------------------------------------




--------------------------------------- Iteration      1(   2)  ---------------------------------------


    TRIAL :  cpu time    2.0039: real time    2.0056
    CORREC:  cpu time    0.0002: real time    0.0002
    --------------------------------------------
      LOOP:  cpu time    2.0044: real time    2.0061

 eigenvalue-minimisations  :  3584
 total energy-change (2. order) :-0.6822530E+01  (-0.6816060E+01)
 number of electron       8.0000000 magnetization 
 augmentation part        8.0000000 magnetization 

 Free energy of the ion-electron system (eV)
  ---------------------------------------------------
  alpha Z        PSCENC =        17.10940282
  Ewald energy   TEWEN  =      -220.32663596
  -Hartree energ DENC   =       -12.42928696
  -exchange      EXHF   =         0.00000000
  -V(xc)+E(xc)   XCENC  =       -14.98288157
  PAW double counting   =       176.29039040     -147.44509322
  entropy T*S    EENTRO =         0.00004066
  eigenvalues    EBANDS =       -18.67320753
  atomic energy  EATOM  =       209.99145059
  ---------------------------------------------------
  free energy    TOTEN  =       -10.46582076 eV

  energy without entropy =      -10.46586143  energy(sigma->0) =      -10.46583432


--------------------------------------------------------------------------------------------------------




--------------------------------------- Iteration      1(   3)  ---------------------------------------


    TRIAL :  cpu time    1.2551: real time    1.2563
    CORREC:  cpu time    0.0002: real time    0.0002
    --------------------------------------------
      LOOP:  cpu time    1.2566: real time    1.2589

 eigenvalue-minimisations  :  2856
 total energy-change (2. order) :-0.3043474E-01  (-0.3043435E-01)
 number of electron       8.0000000 magnetization 
 augmentation part        8.0000000 magnetization 

 Free energy of the ion-electron system (eV)
  ---------------------------------------------------
  alpha Z        PSCENC =        17.10940282
  Ewald energy   TEWEN  =      -220.32663596
  -Hartree energ DENC   =       -12.42928696
  -exchange      EXHF   =         0.00000000
  -V(xc)+E(xc)   XCENC  =       -14.98288157
  PAW double counting   =       176.29039040     -147.44509322
  entropy T*S    EENTRO =         0.00004026
  eigenvalues    EBANDS =       -18.70364187
  atomic energy  EATOM  =       209.99145059
  ---------------------------------------------------
  free energy    TOTEN  =       -10.49625551 eV

  energy without entropy =      -10.49629577  energy(sigma->0) =      -10.49626893


--------------------------------------------------------------------------------------------------------




--------------------------------------- Iteration      1(   4)  ---------------------------------------


    TRIAL :  cpu time    2.0035: real time    2.0045
    CORREC:  cpu time    0.0002: real time    0.0002
    --------------------------------------------
      LOOP:  cpu time    2.0050: real time    2.0070

 eigenvalue-minimisations  :  3584
 total energy-change (2. order) :-0.2303807E-03  (-0.2303804E-03)
 number of electron       8.0000000 magnetization 
 augmentation part        8.0000000 magnetization 

 Free energy of the ion-electron system (eV)
  ---------------------------------------------------
  alpha Z        PSCENC =        17.10940282
  Ewald energy   TEWEN  =      -220.32663596
  -Hartree energ DENC   =       -12.42928696
  -exchange      EXHF   =         0.00000000
  -V(xc)+E(xc)   XCENC  =       -14.98288157
  PAW double counting   =       176.29039040     -147.44509322
  entropy T*S    EENTRO =         0.00004026
  eigenvalues    EBANDS =       -18.70387225
  atomic energy  EATOM  =       209.99145059
  ---------------------------------------------------
  free energy    TOTEN  =       -10.49648589 eV

  energy without entropy =      -10.49652615  energy(sigma->0) =      -10.49649931


--------------------------------------------------------------------------------------------------------




--------------------------------------- Iteration      1(   5)  ---------------------------------------


    TRIAL :  cpu time    1.3786: real time    1.3792
    CORREC:  cpu time    0.0002: real time    0.0002
    CHARGE:  cpu time    0.0130: real time    0.0131
    --------------------------------------------
      LOOP:  cpu time    1.3921: real time    1.3939

 eigenvalue-minimisations  :  2968
 total energy-change (2. order) :-0.4841787E-06  (-0.4844700E-06)
 number of electron       7.9999998 magnetization 
 augmentation part       -1.2960372 magnetization 

 Free energy of the ion-electron system (eV)
  ---------------------------------------------------
  alpha Z        PSCENC =        17.10940282
  Ewald energy   TEWEN  =      -220.32663596
  -Hartree energ DENC   =       -12.42928696
  -exchange      EXHF   =         0.00000000
  -V(xc)+E(xc)   XCENC  =       -14.98288157
  PAW double counting   =       176.29039040     -147.44509322
  entropy T*S    EENTRO =         0.00004026
  eigenvalues    EBANDS =       -18.70387273
  atomic energy  EATOM  =       209.99145059
  ---------------------------------------------------
  free energy    TOTEN  =       -10.49648637 eV

  energy without entropy =      -10.49652663  energy(sigma->0) =      -10.49649979


--------------------------------------------------------------------------------------------------------




--------------------------------------- Iteration      1(   6)  ---------------------------------------


    POTLOK:  cpu time    0.0044: real time    0.0055
    SETDIJ:  cpu time    0.0032: real time    0.0032
    TRIAL :  cpu time    0.1670: real time    0.1705
    CORREC:  cpu time    0.0002: real time    0.0002
    CHARGE:  cpu time    0.0112: real time    0.0112
    --------------------------------------------
      LOOP:  cpu time    0.1864: real time    0.1922

 eigenvalue-minimisations  :     0
 total energy-change (2. order) : 0.2404115E+00  (-0.1736431E-01)
 number of electron       7.9999998 magnetization 
 augmentation part       -1.2906081 magnetization 

 Free energy of the ion-electron system (eV)
  ---------------------------------------------------
  alpha Z        PSCENC =        17.10940282
  Ewald energy   TEWEN  =      -220.32663596
  -Hartree energ DENC   =       -16.63034595
  -exchange      EXHF   =         0.00000000
  -V(xc)+E(xc)   XCENC  =       -14.29486064
  PAW double counting   =       517.17244074     -489.03190402
  entropy T*S    EENTRO =         0.00004026
  eigenvalues    EBANDS =       -14.24566268
  atomic energy  EATOM  =       209.99145059
  ---------------------------------------------------
  free energy    TOTEN  =       -10.25607483 eV

  energy without entropy =      -10.25611510  energy(sigma->0) =      -10.25608826


--------------------------------------------------------------------------------------------------------




--------------------------------------- Iteration      1(   7)  ---------------------------------------


    POTLOK:  cpu time    0.0037: real time    0.0037
    SETDIJ:  cpu time    0.0029: real time    0.0029
    TRIAL :  cpu time    0.1582: real time    0.1611
    CORREC:  cpu time    0.0002: real time    0.0002
    CHARGE:  cpu time    0.0112: real time    0.0112
    --------------------------------------------
      LOOP:  cpu time    0.1764: real time    0.1793

 eigenvalue-minimisations  :     0
 total energy-change (2. order) :-0.1519053E-01  (-0.1484317E-01)
 number of electron       7.9999998 magnetization 
 augmentation part       -1.2845998 magnetization 

 Free energy of the ion-electron system (eV)
  ---------------------------------------------------
  alpha Z        PSCENC =        17.10940282
  Ewald energy   TEWEN  =      -220.32663596
  -Hartree energ DENC   =       -16.43497380
  -exchange      EXHF   =         0.00000000
  -V(xc)+E(xc)   XCENC  =       -14.30138585
  PAW double counting   =       514.46256133     -486.30948551
  entropy T*S    EENTRO =         0.00004026
  eigenvalues    EBANDS =       -14.46223924
  atomic energy  EATOM  =       209.99145059
  ---------------------------------------------------
  free energy    TOTEN  =       -10.27126536 eV

  energy without entropy =      -10.27130563  energy(sigma->0) =      -10.27127878


--------------------------------------------------------------------------------------------------------




--------------------------------------- Iteration      1(   8)  ---------------------------------------


    POTLOK:  cpu time    0.0036: real time    0.0036
    SETDIJ:  cpu time    0.0028: real time    0.0028
    TRIAL :  cpu time    0.1583: real time    0.1611
    CORREC:  cpu time    0.0002: real time    0.0002
    CHARGE:  cpu time    0.0112: real time    0.0112
    --------------------------------------------
      LOOP:  cpu time    0.1764: real time    0.1792

 eigenvalue-minimisations  :     0
 total energy-change (2. order) :-0.1219150E-01  (-0.7936456E-02)
 number of electron       7.9999998 magnetization 
 augmentation part       -1.2799568 magnetization 

 Free energy of the ion-electron system (eV)
  ---------------------------------------------------
  alpha Z        PSCENC =        17.10940282
  Ewald energy   TEWEN  =      -220.32663596
  -Hartree energ DENC   =       -16.20955804
  -exchange      EXHF   =         0.00000000
  -V(xc)+E(xc)   XCENC  =       -14.30920406
  PAW double counting   =       511.76410219     -483.59713729
  entropy T*S    EENTRO =         0.00004026
  eigenvalues    EBANDS =       -14.70591737
  atomic energy  EATOM  =       209.99145059
  ---------------------------------------------------
  free energy    TOTEN  =       -10.28345686 eV

  energy without entropy =      -10.28349712  energy(sigma->0) =      -10.28347028


--------------------------------------------------------------------------------------------------------




--------------------------------------- Iteration      1(   9)  ---------------------------------------


    POTLOK:  cpu time    0.0037: real time    0.0037
    SETDIJ:  cpu time    0.0028: real time    0.0028
    TRIAL :  cpu time    0.1585: real time    0.1614
    CORREC:  cpu time    0.0002: real time    0.0002
    CHARGE:  cpu time    0.0112: real time    0.0112
    --------------------------------------------
      LOOP:  cpu time    0.1767: real time    0.1795

 eigenvalue-minimisations  :     0
 total energy-change (2. order) :-0.6287957E-02  (-0.3410081E-02)
 number of electron       7.9999998 magnetization 
 augmentation part       -1.2770292 magnetization 

 Free energy of the ion-electron system (eV)
  ---------------------------------------------------
  alpha Z        PSCENC =        17.10940282
  Ewald energy   TEWEN  =      -220.32663596
  -Hartree energ DENC   =       -16.02265497
  -exchange      EXHF   =         0.00000000
  -V(xc)+E(xc)   XCENC  =       -14.31611820
  PAW double counting   =       510.05322618     -481.87541504
  entropy T*S    EENTRO =         0.00004026
  eigenvalues    EBANDS =       -14.90304048
  atomic energy  EATOM  =       209.99145059
  ---------------------------------------------------
  free energy    TOTEN  =       -10.28974482 eV

  energy without entropy =      -10.28978508  energy(sigma->0) =      -10.28975824


--------------------------------------------------------------------------------------------------------




--------------------------------------- Iteration      1(  10)  ---------------------------------------


    POTLOK:  cpu time    0.0036: real time    0.0036
    SETDIJ:  cpu time    0.0028: real time    0.0028
    TRIAL :  cpu time    0.1582: real time    0.1611
    CORREC:  cpu time    0.0002: real time    0.0002
    CHARGE:  cpu time    0.0110: real time    0.0113
    --------------------------------------------
      LOOP:  cpu time    0.1762: real time    0.1792

 eigenvalue-minimisations  :     0
 total energy-change (2. order) :-0.2639616E-02  (-0.1293431E-02)
 number of electron       7.9999998 magnetization 
 augmentation part       -1.2754744 magnetization 

 Free energy of the ion-electron system (eV)
  ---------------------------------------------------
  alpha Z        PSCENC =        17.10940282
  Ewald energy   TEWEN  =      -220.32663596
  -Hartree energ DENC   =       -15.89089099
  -exchange      EXHF   =         0.00000000
  -V(xc)+E(xc)   XCENC  =       -14.32149481
  PAW double counting   =       509.23688772     -481.05198464
  entropy T*S    EENTRO =         0.00004026
  eigenvalues    EBANDS =       -15.03915942
  atomic energy  EATOM  =       209.99145059
  ---------------------------------------------------
  free energy    TOTEN  =       -10.29238443 eV

  energy without entropy =      -10.29242470  energy(sigma->0) =      -10.29239786


--------------------------------------------------------------------------------------------------------




--------------------------------------- Iteration      1(  11)  ---------------------------------------


    POTLOK:  cpu time    0.0036: real time    0.0036
    SETDIJ:  cpu time    0.0028: real time    0.0028
    TRIAL :  cpu time    0.1582: real time    0.1610
    CORREC:  cpu time    0.0002: real time    0.0002
    CHARGE:  cpu time    0.0112: real time    0.0112
    --------------------------------------------
      LOOP:  cpu time    0.1762: real time    0.1791

 eigenvalue-minimisations  :     0
 total energy-change (2. order) :-0.9777847E-03  (-0.4325807E-03)
 number of electron       7.9999998 magnetization 
 augmentation part       -1.2747856 magnetization 

 Free energy of the ion-electron system (eV)
  ---------------------------------------------------
  alpha Z        PSCENC =        17.10940282
  Ewald energy   TEWEN  =      -220.32663596
  -Hartree energ DENC   =       -15.80809102
  -exchange      EXHF   =         0.00000000
  -V(xc)+E(xc)   XCENC  =       -14.32526177
  PAW double counting   =       509.08580036     -480.89684068
  entropy T*S    EENTRO =         0.00004026
  eigenvalues    EBANDS =       -15.12322681
  atomic energy  EATOM  =       209.99145059
  ---------------------------------------------------
  free energy    TOTEN  =       -10.29336222 eV

  energy without entropy =      -10.29340248  energy(sigma->0) =      -10.29337564


--------------------------------------------------------------------------------------------------------




--------------------------------------- Iteration      1(  12)  ---------------------------------------


    POTLOK:  cpu time    0.0037: real time    0.0037
    SETDIJ:  cpu time    0.0028: real time    0.0028
    TRIAL :  cpu time    0.1580: real time    0.1607
    CORREC:  cpu time    0.0002: real time    0.0002
    CHARGE:  cpu time    0.0111: real time    0.0111
    --------------------------------------------
      LOOP:  cpu time    0.1760: real time    0.1788

 eigenvalue-minimisations  :     0
 total energy-change (2. order) :-0.3132881E-03  (-0.1175140E-03)
 number of electron       7.9999998 magnetization 
 augmentation part       -1.2745539 magnetization 

 Free energy of the ion-electron system (eV)
  ---------------------------------------------------
  alpha Z        PSCENC =        17.10940282
  Ewald energy   TEWEN  =      -220.32663596
  -Hartree energ DENC   =       -15.76108196
  -exchange      EXHF   =         0.00000000
  -V(xc)+E(xc)   XCENC  =       -14.32762822
  PAW double counting   =       509.26988327     -481.07882172
  entropy T*S    EENTRO =         0.00004026
  eigenvalues    EBANDS =       -15.17028459
  atomic energy  EATOM  =       209.99145059
  ---------------------------------------------------
  free energy    TOTEN  =       -10.29367551 eV

  energy without entropy =      -10.29371577  energy(sigma->0) =      -10.29368893


--------------------------------------------------------------------------------------------------------




--------------------------------------- Iteration      1(  13)  ---------------------------------------


    POTLOK:  cpu time    0.0036: real time    0.0037
    SETDIJ:  cpu time    0.0028: real time    0.0028
    TRIAL :  cpu time    0.1582: real time    0.1610
    CORREC:  cpu time    0.0002: real time    0.0002
    EDDIAG:  cpu time    0.1048: real time    0.1072
    CHARGE:  cpu time    0.0108: real time    0.0108
    --------------------------------------------
      LOOP:  cpu time    0.2808: real time    0.2861

 eigenvalue-minimisations  :     0
 total energy-change (2. order) :-0.7888129E-04  (-0.2412330E-04)
 number of electron       7.9999998 magnetization 
 augmentation part       -1.2745271 magnetization 

 Free energy of the ion-electron system (eV)
  ---------------------------------------------------
  alpha Z        PSCENC =        17.10940282
  Ewald energy   TEWEN  =      -220.32663596
  -Hartree energ DENC   =       -15.73721549
  -exchange      EXHF   =         0.00000000
  -V(xc)+E(xc)   XCENC  =       -14.32893642
  PAW double counting   =       509.52455637     -481.33246821
  entropy T*S    EENTRO =         0.00004026
  eigenvalues    EBANDS =       -15.19394835
  atomic energy  EATOM  =       209.99145059
  ---------------------------------------------------
  free energy    TOTEN  =       -10.29375439 eV

  energy without entropy =      -10.29379465  energy(sigma->0) =      -10.29376781


--------------------------------------------------------------------------------------------------------


  average scaling for gradient   1.5354


 average (electrostatic) potential at core
  the test charge radii are     1.1631
  (the norm of the test charge is              1.0000)
       1 -32.8245       2 -32.8245
 
 
 
 E-fermi :   3.7269     XC(G=0):  -9.1609     alpha+bet : -9.2781


 k-point     1 :       0.0000    0.0000    0.0000
  band No.  band energies     occupation 
      1      -8.9600      2.00000
      2       3.6901      2.00002
      3       3.6901      2.00001
      4       3.6901      1.99997
      5       4.1096     -0.00000
      6       6.2859      0.00000
      7       6.2859      0.00000
      8       6.2859      0.00000
      9      10.3549      0.00000
     10      13.2010      0.00000
     11      13.2010      0.00000
     12      14.6203      0.00000
     13      14.6203      0.00000
     14      14.6203      0.00000
     15      17.7664      0.00000
     16      28.2641      0.00000
     17      28.2641      0.00000
     18      28.2641      0.00000
     19      28.9323      0.00000
     20      28.9323      0.00000
     21      28.9323      0.00000
     22      29.4778      0.00000
     23      29.4778      0.00000
     24      30.1741      0.00000
     25      30.1741      0.00000
     26      30.1741      0.00000
     27      38.6411      0.00000
     28      39.1132      0.00000
     29      39.1132      0.00000
     30      39.1132      0.00000
     31      41.9492      0.00000
     32      41.9492      0.00000
     33      42.5136      0.00000
     34      42.5136      0.00000
     35      43.4608      0.00000
     36      43.6160      0.00000
     37      43.6160      0.00000
     38      43.6160      0.00000
     39      44.0696      0.00000
     40      44.0696      0.00000
     41      44.0697      0.00000
     42      44.9066      0.00000
     43      44.9066      0.00000
     44      44.9067      0.00000
     45      45.3420      0.00000
     46      45.3420      0.00000
     47      45.3421      0.00000
     48      46.5192      0.00000
     49      46.5192      0.00000
     50      46.5197      0.00000
     51      49.9394      0.00000
     52      51.9103      0.00000
     53      51.9106      0.00000
     54      52.0707      0.00000
     55      52.1775      0.00000
     56      52.1788      0.00000

 k-point     2 :       0.1667    0.0000    0.0000
  band No.  band energies     occupation 
      1      -8.6240      2.00000
      2       0.6425      2.00000
      3       3.1585      2.00000
      4       3.1585      2.00000
      5       4.8541     -0.00000
      6       6.9854      0.00000
      7       6.9854      0.00000
      8       7.9860      0.00000
      9      11.7060      0.00000
     10      12.1318      0.00000
     11      12.1318      0.00000
     12      13.8510      0.00000
     13      16.9646      0.00000
     14      16.9646      0.00000
     15      19.9807      0.00000
     16      24.0491      0.00000
     17      24.0491      0.00000
     18      24.3426      0.00000
     19      29.0934      0.00000
     20      29.0934      0.00000
     21      29.5455      0.00000
     22      29.5455      0.00000
     23      30.4615      0.00000
     24      31.7662      0.00000
     25      34.7411      0.00000
     26      34.9482      0.00000
     27      34.9482      0.00000
     28      37.0621      0.00000
     29      37.0621      0.00000
     30      38.1293      0.00000
     31      38.1293      0.00000
     32      39.7697      0.00000
     33      39.7697      0.00000
     34      40.0125      0.00000
     35      41.5313      0.00000
     36      41.5535      0.00000
     37      42.9124      0.00000
     38      42.9124      0.00000
     39      43.7484      0.00000
     40      44.2248      0.00000
     41      44.6392      0.00000
     42      44.6392      0.00000
     43      45.8909      0.00000
     44      47.1123      0.00000
     45      47.1123      0.00000
     46      48.3737      0.00000
     47      48.3739      0.00000
     48      48.4173      0.00000
     49      49.9506      0.00000
     50      49.9507      0.00000
     51      50.7703      0.00000
     52      51.4266      0.00000
     53      52.7250      0.00000
     54      52.7392      0.00000
     55      55.4996      0.00000
     56      55.5351      0.00000

 k-point     3 :       0.3333    0.0000    0.0000
  band No.  band energies     occupation 
      1      -7.6891      2.00000
      2      -2.3116      2.00000
      3       2.5000      2.00000
      4       2.5000      2.00000
      5       4.3185     -0.00000
      6       7.5369      0.00000
      7       7.5369      0.00000
      8      10.8483      0.00000
      9      11.7591      0.00000
     10      12.7453      0.00000
     11      12.7453      0.00000
     12      16.2742      0.00000
     13      19.3325      0.00000
     14      19.3325      0.00000
     15      20.5375      0.00000
     16      20.9322      0.00000
     17      20.9322      0.00000
     18      24.2096      0.00000
     19      28.9644      0.00000
     20      29.4157      0.00000
     21      29.4157      0.00000
     22      30.1763      0.00000
     23      30.1763      0.00000
     24      31.1906      0.00000
     25      31.3616      0.00000
     26      31.3616      0.00000
     27      33.2203      0.00000
     28      35.9414      0.00000
     29      35.9414      0.00000
     30      36.5308      0.00000
     31      36.5308      0.00000
     32      36.7338      0.00000
     33      38.5268      0.00000
     34      39.1341      0.00000
     35      41.8431      0.00000
     36      41.8431      0.00000
     37      42.5543      0.00000
     38      42.5543      0.00000
     39      43.0957      0.00000
     40      44.7211      0.00000
     41      44.7211      0.00000
     42      44.8535      0.00000
     43      46.2765      0.00000
     44      49.9725      0.00000
     45      49.9726      0.00000
     46      51.2125      0.00000
     47      51.2133      0.00000
     48      52.5513      0.00000
     49      53.5765      0.00000
     50      53.5768      0.00000
     51      54.1119      0.00000
     52      56.5615      0.00000
     53      57.0217      0.00000
     54      57.0976      0.00000
     55      58.3097      0.00000
     56      58.3305      0.00000

 k-point     4 :       0.5000    0.0000    0.0000
  band No.  band energies     occupation 
      1      -6.8567      2.00000
      2      -3.8439      2.00000
      3       2.2565      2.00000
      4       2.2565      2.00000
      5       4.0999     -0.00000
      6       7.5155      0.00000
      7       7.5155      0.00000
      8      10.9596      0.00000
      9      14.4033      0.00000
     10      14.9924      0.00000
     11      15.0014      0.00000
     12      15.0014      0.00000
     13      16.0656      0.00000
     14      16.0656      0.00000
     15      22.6357      0.00000
     16      23.8710      0.00000
     17      25.3378      0.00000
     18      25.3378      0.00000
     19      25.4891      0.00000
     20      25.4891      0.00000
     21      28.8073      0.00000
     22      29.9956      0.00000
     23      30.2763      0.00000
     24      30.2763      0.00000
     25      30.8775      0.00000
     26      30.8775      0.00000
     27      31.6988      0.00000
     28      35.1487      0.00000
     29      35.1487      0.00000
     30      35.3177      0.00000
     31      35.3177      0.00000
     32      36.1430      0.00000
     33      37.2536      0.00000
     34      37.4015      0.00000
     35      42.5118      0.00000
     36      42.5118      0.00000
     37      42.7713      0.00000
     38      43.7363      0.00000
     39      43.7363      0.00000
     40      44.7243      0.00000
     41      48.1067      0.00000
     42      48.1067      0.00000
     43      49.4477      0.00000
     44      49.4478      0.00000
     45      50.2372      0.00000
     46      52.3832      0.00000
     47      52.8791      0.00000
     48      52.8794      0.00000
     49      54.2284      0.00000
     50      54.2321      0.00000
     51      54.7364      0.00000
     52      56.0328      0.00000
     53      56.0372      0.00000
     54      57.7331      0.00000
     55      57.7576      0.00000
     56      58.5066      0.00000

 k-point     5 :       0.1667    0.1667    0.0000
  band No.  band energies     occupation 
      1      -8.5088      2.00000
      2       0.6872      2.00000
      3       2.3824      2.00000
      4       2.3824      2.00000
      5       5.3567      0.00000
      6       6.6169      0.00000
      7       8.1560      0.00000
      8       8.1560      0.00000
      9      10.7106      0.00000
     10      12.2957      0.00000
     11      13.6607      0.00000
     12      15.5546      0.00000
     13      15.5546      0.00000
     14      16.3897      0.00000
     15      21.2954      0.00000
     16      23.6135      0.00000
     17      23.6135      0.00000
     18      24.7740      0.00000
     19      25.3366      0.00000
     20      28.6914      0.00000
     21      29.9731      0.00000
     22      29.9731      0.00000
     23      31.3959      0.00000
     24      34.8125      0.00000
     25      34.8125      0.00000
     26      35.0628      0.00000
     27      35.0628      0.00000
     28      35.4079      0.00000
     29      35.4496      0.00000
     30      36.3091      0.00000
     31      37.8189      0.00000
     32      40.4185      0.00000
     33      40.4185      0.00000
     34      40.6246      0.00000
     35      41.3045      0.00000
     36      41.6173      0.00000
     37      42.0570      0.00000
     38      42.0570      0.00000
     39      42.6943      0.00000
     40      45.1976      0.00000
     41      45.6690      0.00000
     42      45.6690      0.00000
     43      46.2974      0.00000
     44      47.2371      0.00000
     45      47.9112      0.00000
     46      47.9112      0.00000
     47      48.6778      0.00000
     48      48.6778      0.00000
     49      48.8566      0.00000
     50      49.8964      0.00000
     51      50.3056      0.00000
     52      51.5465      0.00000
     53      53.0513      0.00000
     54      53.0525      0.00000
     55      56.0165      0.00000
     56      56.8118      0.00000

 k-point     6 :       0.3333    0.1667    0.0000
  band No.  band energies     occupation 
      1      -7.7518      2.00000
      2      -1.6014      2.00000
      3       1.4083      2.00000
      4       1.7592      2.00000
      5       5.5767      0.00000
      6       6.9404      0.00000
      7       8.7392      0.00000
      8       9.0403      0.00000
      9      12.3144      0.00000
     10      13.5661      0.00000
     11      14.0144      0.00000
     12      15.8894      0.00000
     13      18.2188      0.00000
     14      19.4375      0.00000
     15      19.7485      0.00000
     16      20.0418      0.00000
     17      23.9657      0.00000
     18      24.8576      0.00000
     19      25.0504      0.00000
     20      26.3760      0.00000
     21      29.0865      0.00000
     22      30.5989      0.00000
     23      30.9376      0.00000
     24      32.1867      0.00000
     25      32.2186      0.00000
     26      33.3669      0.00000
     27      34.8592      0.00000
     28      34.9393      0.00000
     29      35.6451      0.00000
     30      35.8987      0.00000
     31      37.7492      0.00000
     32      37.8782      0.00000
     33      38.9654      0.00000
     34      39.8669      0.00000
     35      39.8822      0.00000
     36      41.2792      0.00000
     37      42.4648      0.00000
     38      43.5776      0.00000
     39      44.6854      0.00000
     40      44.8530      0.00000
     41      45.5043      0.00000
     42      45.8193      0.00000
     43      46.4745      0.00000
     44      47.4704      0.00000
     45      48.2406      0.00000
     46      48.6484      0.00000
     47      51.0587      0.00000
     48      51.5917      0.00000
     49      51.7320      0.00000
     50      52.3599      0.00000
     51      53.9004      0.00000
     52      55.4373      0.00000
     53      56.3475      0.00000
     54      57.5319      0.00000
     55      58.2762      0.00000
     56      58.6588      0.00000

 k-point     7 :       0.5000    0.1667    0.0000
  band No.  band energies     occupation 
      1      -6.6849      2.00000
      2      -3.6196      2.00000
      3       0.5808      2.00000
      4       1.6886      2.00000
      5       5.4556      0.00000
      6       7.5914      0.00000
      7       8.7462      0.00000
      8      10.2186      0.00000
      9      13.0618      0.00000
     10      14.8915      0.00000
     11      14.9928      0.00000
     12      15.6664      0.00000
     13      16.6075      0.00000
     14      20.0461      0.00000
     15      21.6642      0.00000
     16      22.5324      0.00000
     17      23.7311      0.00000
     18      24.5428      0.00000
     19      25.4696      0.00000
     20      26.4785      0.00000
     21      26.9737      0.00000
     22      29.3324      0.00000
     23      29.3877      0.00000
     24      30.4257      0.00000
     25      30.5853      0.00000
     26      31.4654      0.00000
     27      32.3814      0.00000
     28      32.9708      0.00000
     29      34.8213      0.00000
     30      36.1510      0.00000
     31      36.3924      0.00000
     32      37.3769      0.00000
     33      38.5155      0.00000
     34      39.4313      0.00000
     35      40.1819      0.00000
     36      42.0766      0.00000
     37      42.9595      0.00000
     38      44.2895      0.00000
     39      46.3400      0.00000
     40      46.9640      0.00000
     41      47.1413      0.00000
     42      47.7597      0.00000
     43      48.4829      0.00000
     44      48.8413      0.00000
     45      49.2007      0.00000
     46      50.8955      0.00000
     47      51.1240      0.00000
     48      52.8919      0.00000
     49      53.1822      0.00000
     50      53.6574      0.00000
     51      55.9748      0.00000
     52      56.1193      0.00000
     53      57.1966      0.00000
     54      57.7525      0.00000
     55      58.8895      0.00000
     56      59.4067      0.00000

 k-point     8 :      -0.3333    0.1667    0.0000
  band No.  band energies     occupation 
      1      -7.0226      2.00000
      2      -3.0727      2.00000
      3       0.3649      2.00000
      4       2.1814      2.00000
      5       5.6029      0.00000
      6       7.8529      0.00000
      7       8.2086      0.00000
      8      10.5585      0.00000
      9      12.1272      0.00000
     10      12.9550      0.00000
     11      14.8579      0.00000
     12      16.5654      0.00000
     13      18.3138      0.00000
     14      20.0076      0.00000
     15      20.0603      0.00000
     16      21.6399      0.00000
     17      24.2014      0.00000
     18      25.5065      0.00000
     19      26.1856      0.00000
     20      26.4354      0.00000
     21      27.5790      0.00000
     22      27.5945      0.00000
     23      30.3520      0.00000
     24      30.7141      0.00000
     25      31.2513      0.00000
     26      31.4480      0.00000
     27      31.4498      0.00000
     28      35.1003      0.00000
     29      35.7553      0.00000
     30      36.3232      0.00000
     31      36.6890      0.00000
     32      37.9160      0.00000
     33      38.2466      0.00000
     34      39.0990      0.00000
     35      39.9401      0.00000
     36      41.9147      0.00000
     37      42.5681      0.00000
     38      43.1377      0.00000
     39      43.4249      0.00000
     40      45.9159      0.00000
     41      47.6263      0.00000
     42      47.9917      0.00000
     43      49.1376      0.00000
     44      49.8295      0.00000
     45      49.9863      0.00000
     46      50.8579      0.00000
     47      52.0995      0.00000
     48      52.9528      0.00000
     49      53.1996      0.00000
     50      53.8028      0.00000
     51      54.5053      0.00000
     52      55.3930      0.00000
     53      56.1312      0.00000
     54      57.4976      0.00000
     55      57.8979      0.00000
     56      58.3969      0.00000

 k-point     9 :      -0.1667    0.1667    0.0000
  band No.  band energies     occupation 
      1      -8.0778      2.00000
      2      -0.8912      2.00000
      3       1.1296      2.00000
      4       2.9794      2.00000
      5       5.7935      0.00000
      6       7.3052      0.00000
      7       7.5795      0.00000
      8       8.9348      0.00000
      9      11.1243      0.00000
     10      13.1969      0.00000
     11      13.2323      0.00000
     12      15.5855      0.00000
     13      16.8820      0.00000
     14      19.3592      0.00000
     15      20.1746      0.00000
     16      22.4907      0.00000
     17      23.9607      0.00000
     18      24.5365      0.00000
     19      24.5488      0.00000
     20      26.4716      0.00000
     21      30.2018      0.00000
     22      30.7366      0.00000
     23      31.7385      0.00000
     24      32.7994      0.00000
     25      33.2003      0.00000
     26      33.8148      0.00000
     27      34.7320      0.00000
     28      35.6748      0.00000
     29      36.2024      0.00000
     30      36.5433      0.00000
     31      36.8229      0.00000
     32      38.4852      0.00000
     33      39.4189      0.00000
     34      39.7703      0.00000
     35      39.9948      0.00000
     36      40.6214      0.00000
     37      41.8641      0.00000
     38      42.1109      0.00000
     39      43.7079      0.00000
     40      44.7172      0.00000
     41      45.4176      0.00000
     42      46.0033      0.00000
     43      46.9586      0.00000
     44      48.0996      0.00000
     45      48.1818      0.00000
     46      48.8856      0.00000
     47      49.6939      0.00000
     48      49.7800      0.00000
     49      52.3725      0.00000
     50      53.2505      0.00000
     51      54.0698      0.00000
     52      54.1827      0.00000
     53      55.7760      0.00000
     54      56.4735      0.00000
     55      56.8811      0.00000
     56      58.0452      0.00000

 k-point    10 :       0.3333    0.3333    0.0000
  band No.  band energies     occupation 
      1      -7.1801      2.00000
      2      -2.3575      2.00000
      3       1.0461      2.00000
      4       1.0461      2.00000
      5       4.4655     -0.00000
      6       5.7940      0.00000
      7      11.0795      0.00000
      8      11.0795      0.00000
      9      12.3502      0.00000
     10      15.0433      0.00000
     11      15.7106      0.00000
     12      18.3162      0.00000
     13      18.3162      0.00000
     14      18.8222      0.00000
     15      19.2356      0.00000
     16      19.2356      0.00000
     17      20.6045      0.00000
     18      21.8827      0.00000
     19      27.4617      0.00000
     20      28.2694      0.00000
     21      28.6185      0.00000
     22      28.6185      0.00000
     23      29.5209      0.00000
     24      30.3848      0.00000
     25      31.1973      0.00000
     26      31.1973      0.00000
     27      32.6504      0.00000
     28      36.4472      0.00000
     29      37.3457      0.00000
     30      37.3457      0.00000
     31      38.7283      0.00000
     32      39.3081      0.00000
     33      40.5325      0.00000
     34      40.5325      0.00000
     35      40.7624      0.00000
     36      40.8433      0.00000
     37      40.8433      0.00000
     38      42.8830      0.00000
     39      43.5897      0.00000
     40      43.6918      0.00000
     41      44.4212      0.00000
     42      44.4212      0.00000
     43      46.1807      0.00000
     44      49.0045      0.00000
     45      50.3957      0.00000
     46      50.3958      0.00000
     47      51.5490      0.00000
     48      52.3337      0.00000
     49      53.1439      0.00000
     50      53.1450      0.00000
     51      53.6858      0.00000
     52      54.1822      0.00000
     53      57.7731      0.00000
     54      58.4159      0.00000
     55      58.4438      0.00000
     56      59.9372      0.00000

 k-point    11 :       0.5000    0.3333    0.0000
  band No.  band energies     occupation 
      1      -6.1037      2.00000
      2      -3.8654      2.00000
      3      -0.0840      2.00000
      4       0.8854      2.00000
      5       4.8638     -0.00000
      6       6.4806      0.00000
      7      10.8375      0.00000
      8      11.3853      0.00000
      9      14.2062      0.00000
     10      15.3801      0.00000
     11      15.8095      0.00000
     12      17.2872      0.00000
     13      17.7707      0.00000
     14      19.8238      0.00000
     15      20.7283      0.00000
     16      21.4264      0.00000
     17      22.0866      0.00000
     18      23.0577      0.00000
     19      23.6595      0.00000
     20      26.1352      0.00000
     21      26.3101      0.00000
     22      26.6328      0.00000
     23      28.5808      0.00000
     24      30.0922      0.00000
     25      31.8497      0.00000
     26      31.8552      0.00000
     27      33.9696      0.00000
     28      34.0344      0.00000
     29      35.5592      0.00000
     30      36.3934      0.00000
     31      37.5134      0.00000
     32      38.3238      0.00000
     33      38.8691      0.00000
     34      39.2773      0.00000
     35      41.7223      0.00000
     36      41.8115      0.00000
     37      42.8019      0.00000
     38      43.7618      0.00000
     39      44.7948      0.00000
     40      45.0221      0.00000
     41      45.7363      0.00000
     42      47.9765      0.00000
     43      48.4002      0.00000
     44      49.1160      0.00000
     45      49.8520      0.00000
     46      50.7021      0.00000
     47      51.3901      0.00000
     48      53.0848      0.00000
     49      54.3816      0.00000
     50      54.6332      0.00000
     51      55.8778      0.00000
     52      56.4796      0.00000
     53      57.0302      0.00000
     54      57.2105      0.00000
     55      58.2050      0.00000
     56      59.1144      0.00000

 k-point    12 :      -0.3333    0.3333    0.0000
  band No.  band energies     occupation 
      1      -5.9635      2.00000
      2      -4.0176      2.00000
      3      -0.8012      2.00000
      4       1.3411      2.00000
      5       5.2652      0.00000
      6       9.5707      0.00000
      7      10.2018      0.00000
      8      10.2123      0.00000
      9      11.0120      0.00000
     10      12.7038      0.00000
     11      17.4080      0.00000
     12      17.7215      0.00000
     13      19.3836      0.00000
     14      20.6550      0.00000
     15      21.0774      0.00000
     16      22.1110      0.00000
     17      22.2369      0.00000
     18      24.1224      0.00000
     19      25.4803      0.00000
     20      25.8259      0.00000
     21      25.9188      0.00000
     22      26.2455      0.00000
     23      28.9055      0.00000
     24      29.6963      0.00000
     25      29.7951      0.00000
     26      31.7476      0.00000
     27      31.7924      0.00000
     28      32.2165      0.00000
     29      36.7954      0.00000
     30      37.2900      0.00000
     31      37.3421      0.00000
     32      37.6677      0.00000
     33      37.9626      0.00000
     34      38.4615      0.00000
     35      41.4299      0.00000
     36      41.8018      0.00000
     37      43.0307      0.00000
     38      45.0527      0.00000
     39      45.4893      0.00000
     40      47.3566      0.00000
     41      47.8344      0.00000
     42      48.5986      0.00000
     43      49.1127      0.00000
     44      50.4316      0.00000
     45      50.4336      0.00000
     46      51.0845      0.00000
     47      51.2835      0.00000
     48      52.5701      0.00000
     49      53.1779      0.00000
     50      53.7165      0.00000
     51      54.7899      0.00000
     52      55.2069      0.00000
     53      56.0519      0.00000
     54      56.0734      0.00000
     55      57.7083      0.00000
     56      58.2936      0.00000

 k-point    13 :       0.5000    0.5000    0.0000
  band No.  band energies     occupation 
      1      -5.0657      2.00000
      2      -5.0657      2.00000
      3       0.5698      2.00000
      4       0.5698      2.00000
      5       4.5697     -0.00000
      6       4.5697     -0.00000
      7      13.2703      0.00000
      8      13.2703      0.00000
      9      15.4806      0.00000
     10      15.4806      0.00000
     11      16.4583      0.00000
     12      16.4583      0.00000
     13      17.3561      0.00000
     14      17.3561      0.00000
     15      22.8740      0.00000
     16      22.8740      0.00000
     17      22.8805      0.00000
     18      22.8805      0.00000
     19      22.8893      0.00000
     20      22.8893      0.00000
     21      23.5855      0.00000
     22      23.5855      0.00000
     23      30.8382      0.00000
     24      30.8382      0.00000
     25      32.2129      0.00000
     26      32.2129      0.00000
     27      35.7052      0.00000
     28      35.7052      0.00000
     29      36.4524      0.00000
     30      36.4524      0.00000
     31      38.5584      0.00000
     32      38.5584      0.00000
     33      38.7819      0.00000
     34      38.7819      0.00000
     35      40.0767      0.00000
     36      40.0767      0.00000
     37      42.5072      0.00000
     38      42.5072      0.00000
     39      42.9152      0.00000
     40      42.9152      0.00000
     41      46.9926      0.00000
     42      46.9926      0.00000
     43      49.8375      0.00000
     44      49.8378      0.00000
     45      50.3190      0.00000
     46      50.3191      0.00000
     47      55.0655      0.00000
     48      55.0741      0.00000
     49      55.9036      0.00000
     50      55.9618      0.00000
     51      56.9572      0.00000
     52      57.0049      0.00000
     53      57.1520      0.00000
     54      57.3766      0.00000
     55      57.9537      0.00000
     56      58.1132      0.00000

 k-point    14 :       0.5000    0.3333    0.1667
  band No.  band energies     occupation 
      1      -6.8361      2.00000
      2      -2.9372      2.00000
      3      -0.0315      2.00000
      4       1.2188      2.00000
      5       6.5860      0.00000
      6       7.0339      0.00000
      7       8.1528      0.00000
      8      10.8544      0.00000
      9      13.0784      0.00000
     10      13.7289      0.00000
     11      16.2260      0.00000
     12      16.9380      0.00000
     13      17.5415      0.00000
     14      19.5870      0.00000
     15      20.0077      0.00000
     16      21.7209      0.00000
     17      23.2670      0.00000
     18      25.0527      0.00000
     19      25.0691      0.00000
     20      25.9491      0.00000
     21      26.9351      0.00000
     22      27.9181      0.00000
     23      29.0641      0.00000
     24      30.6176      0.00000
     25      30.9215      0.00000
     26      32.4291      0.00000
     27      33.5211      0.00000
     28      34.2694      0.00000
     29      34.8168      0.00000
     30      35.8605      0.00000
     31      36.3361      0.00000
     32      38.3549      0.00000
     33      39.4232      0.00000
     34      40.1298      0.00000
     35      41.6148      0.00000
     36      42.0912      0.00000
     37      43.4455      0.00000
     38      44.3335      0.00000
     39      44.5374      0.00000
     40      44.6045      0.00000
     41      46.3022      0.00000
     42      46.4169      0.00000
     43      47.0183      0.00000
     44      49.2109      0.00000
     45      49.5251      0.00000
     46      50.6924      0.00000
     47      51.3497      0.00000
     48      52.4787      0.00000
     49      53.3471      0.00000
     50      55.3116      0.00000
     51      55.3604      0.00000
     52      55.6865      0.00000
     53      57.2028      0.00000
     54      57.2286      0.00000
     55      57.7845      0.00000
     56      59.3739      0.00000

 k-point    15 :      -0.3333    0.3333    0.1667
  band No.  band energies     occupation 
      1      -5.9579      2.00000
      2      -4.0527      2.00000
      3      -0.4824      2.00000
      4       0.7770      2.00000
      5       6.8555      0.00000
      6       7.4143      0.00000
      7       9.8792      0.00000
      8       9.8894      0.00000
      9      11.8610      0.00000
     10      15.5765      0.00000
     11      15.6251      0.00000
     12      16.4031      0.00000
     13      19.9545      0.00000
     14      20.5149      0.00000
     15      21.2211      0.00000
     16      21.9632      0.00000
     17      22.3126      0.00000
     18      24.6206      0.00000
     19      25.0961      0.00000
     20      25.6171      0.00000
     21      25.9311      0.00000
     22      27.9088      0.00000
     23      28.2568      0.00000
     24      28.8498      0.00000
     25      30.2086      0.00000
     26      31.6991      0.00000
     27      32.9277      0.00000
     28      33.3402      0.00000
     29      33.5196      0.00000
     30      34.4456      0.00000
     31      36.4486      0.00000
     32      38.4458      0.00000
     33      40.7568      0.00000
     34      41.4991      0.00000
     35      41.9419      0.00000
     36      42.8066      0.00000
     37      43.3265      0.00000
     38      43.8853      0.00000
     39      45.0581      0.00000
     40      45.5175      0.00000
     41      46.0240      0.00000
     42      47.8805      0.00000
     43      48.9379      0.00000
     44      49.5655      0.00000
     45      50.6767      0.00000
     46      51.6711      0.00000
     47      52.3532      0.00000
     48      52.4208      0.00000
     49      54.3538      0.00000
     50      54.6419      0.00000
     51      55.0185      0.00000
     52      55.6450      0.00000
     53      56.1698      0.00000
     54      56.5865      0.00000
     55      57.2281      0.00000
     56      58.2136      0.00000

 k-point    16 :      -0.3333    0.5000    0.1667
  band No.  band energies     occupation 
      1      -4.9879      2.00000
      2      -4.9879      2.00000
      3      -0.0803      2.00000
      4      -0.0803      2.00000
      5       6.5118      0.00000
      6       6.5118      0.00000
      7      10.3758      0.00000
      8      10.3758      0.00000
      9      14.7861      0.00000
     10      14.7861      0.00000
     11      16.6909      0.00000
     12      16.6909      0.00000
     13      20.3864      0.00000
     14      20.3864      0.00000
     15      20.9264      0.00000
     16      20.9264      0.00000
     17      21.9451      0.00000
     18      21.9451      0.00000
     19      25.6775      0.00000
     20      25.6775      0.00000
     21      26.7830      0.00000
     22      26.7830      0.00000
     23      27.2642      0.00000
     24      27.2642      0.00000
     25      31.4214      0.00000
     26      31.4214      0.00000
     27      33.0387      0.00000
     28      33.0387      0.00000
     29      35.8527      0.00000
     30      35.8527      0.00000
     31      38.7096      0.00000
     32      38.7096      0.00000
     33      38.8191      0.00000
     34      38.8191      0.00000
     35      42.2113      0.00000
     36      42.2113      0.00000
     37      44.2737      0.00000
     38      44.2737      0.00000
     39      44.3478      0.00000
     40      44.3478      0.00000
     41      48.2573      0.00000
     42      48.2573      0.00000
     43      49.5243      0.00000
     44      49.5243      0.00000
     45      50.7427      0.00000
     46      50.7428      0.00000
     47      51.0949      0.00000
     48      51.0950      0.00000
     49      53.8086      0.00000
     50      53.8090      0.00000
     51      56.4850      0.00000
     52      56.4922      0.00000
     53      57.5942      0.00000
     54      57.6055      0.00000
     55      58.2719      0.00000
     56      58.3229      0.00000


--------------------------------------------------------------------------------------------------------


 soft charge-density along one line, spin component           1
         0         1         2         3         4         5         6         7         8         9
 total charge-density along one line
 
 pseudopotential strength for first ion, spin component:           1
 14.459   0.000  18.040   0.000   0.000   0.000   0.000   0.000   0.000   0.000   0.000   0.000   0.000   0.000   0.000   0.000
 18.040   0.000  22.521   0.000   0.000   0.000   0.000   0.000   0.000   0.000   0.000   0.000   0.000   0.000   0.000   0.000
  0.000   0.000   0.000   0.000   3.083   0.000   0.000   0.000   0.000  -0.000   5.275   0.000   0.000   0.000   0.000  -0.000
  0.000   0.000   0.000   0.000   0.000  -0.000   3.083   0.000   0.000   0.000   0.000  -0.000   5.275   0.000   0.000   0.000
  0.000   0.000   0.000   0.000   0.000   0.000   0.000  -0.000   3.083   0.000   0.000   0.000   0.000  -0.000   5.275   0.000
  0.000   0.000   0.000   0.000   5.275   0.000   0.000   0.000   0.000  -0.000   9.071   0.000   0.000   0.000   0.000  -0.000
  0.000   0.000   0.000   0.000   0.000  -0.000   5.275   0.000   0.000   0.000   0.000  -0.000   9.071   0.000   0.000   0.000
  0.000   0.000   0.000   0.000   0.000   0.000   0.000  -0.000   5.275   0.000   0.000   0.000   0.000  -0.000   9.071   0.000
  0.000   0.000   0.000   0.000   0.000   0.000   0.003   0.000   0.000   0.000   0.000   0.000   0.004   0.000   0.000   0.000
  0.000   0.000   0.000   0.000   0.000   0.000   0.000   0.000   0.003   0.000   0.000   0.000   0.000   0.000   0.004   0.000
  0.000   0.000   0.000   0.000   0.000   0.000  -0.000   0.000   0.000   0.000   0.000   0.000  -0.000   0.000   0.000   0.000
  0.000   0.000   0.000   0.000   0.003   0.000   0.000   0.000   0.000   0.000   0.004   0.000   0.000   0.000   0.000   0.000
 -0.000   0.000  -0.000   0.000   0.000   0.000   0.000   0.000  -0.000   0.000   0.000   0.000   0.000   0.000  -0.000   0.000
 total augmentation occupancy for first ion, spin component:           1
  3.774  -1.178   0.000   0.000   0.000  -0.000   0.000   0.000   0.000  -0.000   0.000   0.000   0.000
 -1.178   0.504   0.000  -0.000  -0.000  -0.000  -0.000  -0.000   0.000  -0.000   0.000  -0.000   0.000
 -0.000  -0.000   2.284   0.000  -0.000  -0.418   0.000   0.000   0.000  -0.000  -0.000   0.195  -0.000
  0.000   0.000   0.000   2.284  -0.000   0.000  -0.418  -0.000   0.195  -0.000   0.000  -0.000  -0.000
  0.000   0.000  -0.000  -0.000   2.284  -0.000   0.000  -0.418  -0.000   0.195  -0.000   0.000   0.000
 -0.000  -0.000  -0.418   0.000   0.000   0.083   0.000  -0.000   0.000   0.000   0.000  -0.036  -0.000
  0.000  -0.000   0.000  -0.418  -0.000  -0.000   0.083   0.000  -0.036  -0.000  -0.000  -0.000  -0.000
  0.000  -0.000   0.000   0.000  -0.418   0.000  -0.000   0.083  -0.000  -0.036   0.000   0.000   0.000
  0.000   0.000   0.000   0.195   0.000   0.000  -0.036   0.000   0.029   0.000   0.000  -0.000  -0.000
  0.000  -0.000   0.000   0.000   0.195   0.000  -0.000  -0.036   0.000   0.029   0.000  -0.000   0.000
  0.000   0.000   0.000   0.000   0.000  -0.000   0.000  -0.000  -0.000  -0.000   0.008   0.000   0.000
 -0.000   0.000   0.195   0.000   0.000  -0.036  -0.000   0.000  -0.000  -0.000  -0.000   0.029   0.000
  0.000   0.000   0.000  -0.000   0.000   0.000  -0.000  -0.000  -0.000   0.000   0.000   0.000   0.008


------------------------ aborting loop because EDIFF is reached ----------------------------------------


    FORLOC:  cpu time    0.0011: real time    0.0011
    FORNL :  cpu time    0.0087: real time    0.0088
    STRESS:  cpu time    0.0790: real time    0.0792
    FORCOR:  cpu time    0.0037: real time    0.0037
    OFIELD:  cpu time    0.0001: real time    0.0001

  FORCE on cell =-STRESS in cart. coord.  units (eV):
  Direction    XX          YY          ZZ          XY          YZ          ZX
  --------------------------------------------------------------------------------------
  Alpha Z    17.10940    17.10940    17.10940
  Ewald     -73.44225   -73.44225   -73.44225     0.00000     0.00000     0.00000
  Hartree     5.24231     5.24231     5.24231     0.00000     0.00000     0.00000
  E(xc)     -27.92825   -27.92825   -27.92825     0.00000     0.00000     0.00000
  Local     -23.67548   -23.67548   -23.67548     0.00000     0.00000     0.00000
  n-local    40.42467    40.89658    37.71052     1.26432    -0.55137     0.32822
  augment     2.37699     2.37699     2.37699    -0.00000    -0.00000    -0.00000
  Kinetic    63.67902    62.52817    57.80835     4.18648    -1.34300     1.18245
  Fock        0.00000     0.00000     0.00000     0.00000     0.00000     0.00000
  -------------------------------------------------------------------------------------
  Total       0.69849     0.69849     0.69849     0.00000     0.00000    -0.00000
  in kB      25.04458    25.04458    25.04458     0.00000     0.00000    -0.00000
  external pressure =       25.04 kB  Pullay stress =        0.00 kB


 VOLUME and BASIS-vectors are now :
 -----------------------------------------------------------------------------
  energy-cutoff  :      450.00
  volume of cell :       44.68
      direct lattice vectors                 reciprocal lattice vectors
     0.000000000  2.816500000  2.816500000    -0.177525297  0.177525297  0.177525297
     2.816500000  0.000000000  2.816500000     0.177525297 -0.177525297  0.177525297
     2.816500000  2.816500000  0.000000000     0.177525297  0.177525297 -0.177525297

  length of vectors
     3.983132498  3.983132498  3.983132498     0.307482835  0.307482835  0.307482835


 FORCES acting on ions:
    Electron-Ion                     Ewald-Force                    Non-Local-Force
 -----------------------------------------------------------------------------------------------
   -.129E-06 -.129E-06 -.129E-06   0.204E-14 0.421E-14 0.352E-14   -.694E-16 -.798E-16 -.798E-16
   0.129E-06 0.129E-06 0.129E-06   -.214E-14 -.407E-14 -.341E-14   0.833E-16 0.798E-16 0.781E-16
 -----------------------------------------------------------------------------------------------
   -.313E-13 0.722E-14 0.697E-14   -.101E-15 0.144E-15 0.110E-15   0.139E-16 0.000E+00 -.173E-17
 
 
 POSITION                                       TOTAL-FORCE (eV/Angst)
 -----------------------------------------------------------------------------------
      0.00000      0.00000      0.00000         0.000000      0.000000      0.000000
      1.40825      1.40825      1.40825        -0.000000     -0.000000     -0.000000
 -----------------------------------------------------------------------------------
    total drift:                               -0.000000      0.000000      0.000000


--------------------------------------------------------------------------------------------------------



  FREE ENERGIE OF THE ION-ELECTRON SYSTEM (eV)
  ---------------------------------------------------
  free  energy   TOTEN  =       -10.29375439 eV

  energy  without entropy=      -10.29379465  energy(sigma->0) =      -10.29376781
 


--------------------------------------------------------------------------------------------------------


    POTLOK:  cpu time    0.0067: real time    0.0067


--------------------------------------------------------------------------------------------------------


 writing wavefunctions
     LOOP+:  cpu time    9.6160: real time    9.8796
    4ORBIT:  cpu time    0.0000: real time    0.0000

 total amount of memory used by VASP MPI-rank0    33439. kBytes
=======================================================================

   base      :      30000. kBytes
   nonl-proj :       1709. kBytes
   fftplans  :        272. kBytes
   grid      :        626. kBytes
   one-center:         16. kBytes
   wavefun   :        816. kBytes
 
  
  
 General timing and accounting informations for this job:
 ========================================================
  
                  Total CPU time used (sec):       10.401
                            User time (sec):       10.020
                          System time (sec):        0.381
                         Elapsed time (sec):       10.809
  
                   Maximum memory used (kb):       57020.
                   Average memory used (kb):           0.
  
                          Minor page faults:        25852
                          Major page faults:            0
                 Voluntary context switches:         1068
