 vasp.5.4.4.18Apr17-6-g9f103f2a35 (build Sep 10 2021 22:26:18) complex          
  
 executed on             LinuxIFC date 2022.02.18  10:25:06
 running on   54 total cores
 distrk:  each k-point on    9 cores,    6 groups
 distr:  one band on NCORES_PER_BAND=   3 cores,    3 groups


--------------------------------------------------------------------------------------------------------


 INCAR:
 POTCAR:    PAW_PBE Ge 05Jan2001                  

 ----------------------------------------------------------------------------- 
|                                                                             |
|           W    W    AA    RRRRR   N    N  II  N    N   GGGG   !!!           |
|           W    W   A  A   R    R  NN   N  II  NN   N  G    G  !!!           |
|           W    W  A    A  R    R  N N  N  II  N N  N  G       !!!           |
|           W WW W  AAAAAA  RRRRR   N  N N  II  N  N N  G  GGG   !            |
|           WW  WW  A    A  R   R   N   NN  II  N   NN  G    G                |
|           W    W  A    A  R    R  N    N  II  N    N   GGGG   !!!           |
|                                                                             |
|      For optimal performance we recommend to set                            |
|        NCORE= 4 - approx SQRT( number of cores)                             |
|      NCORE specifies how many cores store one orbital (NPAR=cpu/NCORE).     |
|      This setting can  greatly improve the performance of VASP for DFT.     |
|      The default,   NCORE=1            might be grossly inefficient         |
|      on modern multi-core architectures or massively parallel machines.     |
|      Do your own testing !!!!                                               |
|      Unfortunately you need to use the default for GW and RPA calculations. |
|      (for HF NCORE is supported but not extensively tested yet)             |
|                                                                             |
 ----------------------------------------------------------------------------- 


 ----------------------------------------------------------------------------- 
|                                                                             |
|           W    W    AA    RRRRR   N    N  II  N    N   GGGG   !!!           |
|           W    W   A  A   R    R  NN   N  II  NN   N  G    G  !!!           |
|           W    W  A    A  R    R  N N  N  II  N N  N  G       !!!           |
|           W WW W  AAAAAA  RRRRR   N  N N  II  N  N N  G  GGG   !            |
|           WW  WW  A    A  R   R   N   NN  II  N   NN  G    G                |
|           W    W  A    A  R    R  N    N  II  N    N   GGGG   !!!           |
|                                                                             |
|      You have enabled k-point parallelism (KPAR>1).                         |
|      This developmental code was originally  written by Paul Kent at ORNL,  |
|      and carefully double checked in Vienna.                                |
|      GW as well as linear response parallelism added by Martijn Marsman     |
|      and Georg Kresse.                                                      |
|      Carefully verify results versus KPAR=1.                                |
|      Report problems to Paul Kent and Vienna.                               |
|                                                                             |
 ----------------------------------------------------------------------------- 

 POTCAR:    PAW_PBE Ge 05Jan2001                  
   VRHFIN =Ge: s2p2                                                             
   LEXCH  = PE                                                                  
   EATOM  =   104.9960 eV,    7.7170 Ry                                         
                                                                                
   TITEL  = PAW_PBE Ge 05Jan2001                                                
   LULTRA =        F    use ultrasoft PP ?                                      
   IUNSCR =        1    unscreen: 0-lin 1-nonlin 2-no                           
   RPACOR =    2.170    partial core radius                                     
   POMASS =   72.610; ZVAL   =    4.000    mass and valenz                      
   RCORE  =    2.300    outmost cutoff radius                                   
   RWIGS  =    2.300; RWIGS  =    1.217    wigner-seitz radius (au A)           
   ENMAX  =  173.807; ENMIN  =  130.355 eV                                      
   ICORE  =        3    local potential                                         
   LCOR   =        T    correct aug charges                                     
   LPAW   =        T    paw PP                                                  
   EAUG   =  385.843                                                            
   DEXC   =    0.000                                                            
   RMAX   =    2.342    core radius for proj-oper                               
   RAUG   =    1.300    factor for augmentation sphere                          
   RDEP   =    2.318    radius for radial grids                                 
   RDEPT  =    2.103    core radius for aug-charge                              
                                                                                
   Atomic configuration                                                         
   10 entries                                                                   
     n  l   j            E        occ.                                          
     1  0  0.50    -10959.8463   2.0000                                         
     2  0  0.50     -1371.6056   2.0000                                         
     2  1  1.50     -1198.4791   6.0000                                         
     3  0  0.50      -168.4733   2.0000                                         
     3  1  1.50      -115.6019   6.0000                                         
     3  2  2.50       -29.3106  10.0000                                         
     4  0  0.50       -11.7309   2.0000                                         
     4  1  0.50        -3.8952   2.0000                                         
     4  2  1.50        -4.0817   0.0000                                         
     4  3  2.50        -4.0817   0.0000                                         
   Description                                                                  
     l       E           TYP  RCUT    TYP  RCUT                                 
     0    -11.7309493     23  2.300                                             
     0     -7.4578696     23  2.300                                             
     1     -3.8952261     23  2.300                                             
     1      6.1178114     23  2.300                                             
     2     -4.0817478     23  2.300                                             
     3     -1.3605826      7  2.300                                             
  local pseudopotential read in
  partial core-charges read in
  partial kinetic energy density read in
  atomic valenz-charges read in
  non local Contribution for L=           0  read in
    real space projection operators read in
  non local Contribution for L=           0  read in
    real space projection operators read in
  non local Contribution for L=           1  read in
    real space projection operators read in
  non local Contribution for L=           1  read in
    real space projection operators read in
  non local Contribution for L=           2  read in
    real space projection operators read in
    PAW grid and wavefunctions read in
 
   number of l-projection  operators is LMAX  =           5
   number of lm-projection operators is LMMAX =          13
 
  PAW_PBE Ge 05Jan2001                  :
 energy of atom  1       EATOM= -104.9960
 kinetic energy error for atom=    0.0003 (will be added to EATOM!!)
 
 
 POSCAR: Ge                                      
  positions in direct lattice
  No initial velocities read in
 exchange correlation table for  LEXCH =        8
   RHO(1)=    0.500       N(1)  =     2000
   RHO(2)=  100.500       N(2)  =     4000
 


--------------------------------------------------------------------------------------------------------


 ion  position               nearest neighbor table
   1  0.000  0.000  0.000-   2 2.44   2 2.44   2 2.44   2 2.44
   2  0.250  0.250  0.250-   1 2.44   1 2.44   1 2.44   1 2.44
 
  LATTYP: Found a face centered cubic cell.
 ALAT       =     5.6330000000
  
  Lattice vectors:
  
 A1 = (   0.0000000000,   2.8165000000,   2.8165000000)
 A2 = (   2.8165000000,   0.0000000000,   2.8165000000)
 A3 = (   2.8165000000,   2.8165000000,   0.0000000000)


Analysis of symmetry for initial positions (statically):
=====================================================================
 Subroutine PRICEL returns:
 Original cell was already a primitive cell.
 

 Routine SETGRP: Setting up the symmetry group for a 
 face centered cubic supercell.


 Subroutine GETGRP returns: Found 48 space group operations
 (whereof 24 operations were pure point group operations)
 out of a pool of 48 trial point group operations.


The static configuration has the point symmetry T_d .
 The point group associated with its full space group is O_h .


Analysis of symmetry for dynamics (positions and initial velocities):
=====================================================================
 Subroutine PRICEL returns:
 Original cell was already a primitive cell.
 

 Routine SETGRP: Setting up the symmetry group for a 
 face centered cubic supercell.


 Subroutine GETGRP returns: Found 48 space group operations
 (whereof 24 operations were pure point group operations)
 out of a pool of 48 trial point group operations.


The dynamic configuration has the point symmetry T_d .
 The point group associated with its full space group is O_h .


Analysis of structural, dynamic, and magnetic symmetry:
=====================================================================
 Subroutine PRICEL returns:
 Original cell was already a primitive cell.
 

 Routine SETGRP: Setting up the symmetry group for a 
 face centered cubic supercell.


 Subroutine GETGRP returns: Found 48 space group operations
 (whereof 24 operations were pure point group operations)
 out of a pool of 48 trial point group operations.


The magnetic configuration has the point symmetry T_d .
 The point group associated with its full space group is O_h .


 Subroutine INISYM returns: Found 48 space group operations
 (whereof 24 operations are pure point group operations),
 and found     1 'primitive' translations

 
 
 KPOINTS: KPOINTS created by Atomic Simulation Env

Automatic generation of k-mesh.
Space group operators:
 irot       det(A)        alpha          n_x          n_y          n_z        tau_x        tau_y        tau_z
    1     1.000000     0.000000     1.000000     0.000000     0.000000     0.000000     0.000000     0.000000
    2     1.000000   120.000000    -0.577350    -0.577350    -0.577350     0.000000     0.000000     0.000000
    3     1.000000   120.000000     0.577350     0.577350     0.577350     0.000000     0.000000     0.000000
    4    -1.000000    90.000000     0.000000     0.000000    -1.000000     0.000000     0.000000     0.000000
    5    -1.000000   180.000000     0.000000     0.707107     0.707107     0.000000     0.000000     0.000000
    6    -1.000000    90.000000     0.000000     1.000000     0.000000     0.000000     0.000000     0.000000
    7     1.000000   180.000000     0.000000     0.000000     1.000000     0.000000     0.000000     0.000000
    8     1.000000   120.000000    -0.577350     0.577350     0.577350     0.000000     0.000000     0.000000
    9     1.000000   120.000000    -0.577350     0.577350    -0.577350     0.000000     0.000000     0.000000
   10    -1.000000    90.000000     0.000000     0.000000     1.000000     0.000000     0.000000     0.000000
   11    -1.000000    90.000000    -1.000000     0.000000     0.000000     0.000000     0.000000     0.000000
   12    -1.000000   180.000000     0.707107     0.000000     0.707107     0.000000     0.000000     0.000000
   13     1.000000   120.000000     0.577350    -0.577350     0.577350     0.000000     0.000000     0.000000
   14     1.000000   120.000000    -0.577350    -0.577350     0.577350     0.000000     0.000000     0.000000
   15     1.000000   180.000000     1.000000     0.000000     0.000000     0.000000     0.000000     0.000000
   16    -1.000000    90.000000     0.000000    -1.000000     0.000000     0.000000     0.000000     0.000000
   17    -1.000000   180.000000     0.707107     0.707107     0.000000     0.000000     0.000000     0.000000
   18    -1.000000    90.000000     1.000000     0.000000     0.000000     0.000000     0.000000     0.000000
   19     1.000000   120.000000     0.577350    -0.577350    -0.577350     0.000000     0.000000     0.000000
   20     1.000000   180.000000     0.000000     1.000000     0.000000     0.000000     0.000000     0.000000
   21     1.000000   120.000000     0.577350     0.577350    -0.577350     0.000000     0.000000     0.000000
   22    -1.000000   180.000000     0.000000    -0.707107     0.707107     0.000000     0.000000     0.000000
   23    -1.000000   180.000000     0.707107    -0.707107     0.000000     0.000000     0.000000     0.000000
   24    -1.000000   180.000000     0.707107     0.000000    -0.707107     0.000000     0.000000     0.000000
   25    -1.000000     0.000000     1.000000     0.000000     0.000000     0.250000     0.250000     0.250000
   26    -1.000000   120.000000    -0.577350    -0.577350    -0.577350     0.250000     0.250000     0.250000
   27    -1.000000   120.000000     0.577350     0.577350     0.577350     0.250000     0.250000     0.250000
   28     1.000000    90.000000     0.000000     0.000000    -1.000000     0.250000     0.250000     0.250000
   29     1.000000   180.000000     0.000000     0.707107     0.707107     0.250000     0.250000     0.250000
   30     1.000000    90.000000     0.000000     1.000000     0.000000     0.250000     0.250000     0.250000
   31    -1.000000   180.000000     0.000000     0.000000     1.000000     0.250000     0.250000     0.250000
   32    -1.000000   120.000000    -0.577350     0.577350     0.577350     0.250000     0.250000     0.250000
   33    -1.000000   120.000000    -0.577350     0.577350    -0.577350     0.250000     0.250000     0.250000
   34     1.000000    90.000000     0.000000     0.000000     1.000000     0.250000     0.250000     0.250000
   35     1.000000    90.000000    -1.000000     0.000000     0.000000     0.250000     0.250000     0.250000
   36     1.000000   180.000000     0.707107     0.000000     0.707107     0.250000     0.250000     0.250000
   37    -1.000000   120.000000     0.577350    -0.577350     0.577350     0.250000     0.250000     0.250000
   38    -1.000000   120.000000    -0.577350    -0.577350     0.577350     0.250000     0.250000     0.250000
   39    -1.000000   180.000000     1.000000     0.000000     0.000000     0.250000     0.250000     0.250000
   40     1.000000    90.000000     0.000000    -1.000000     0.000000     0.250000     0.250000     0.250000
   41     1.000000   180.000000     0.707107     0.707107     0.000000     0.250000     0.250000     0.250000
   42     1.000000    90.000000     1.000000     0.000000     0.000000     0.250000     0.250000     0.250000
   43    -1.000000   120.000000     0.577350    -0.577350    -0.577350     0.250000     0.250000     0.250000
   44    -1.000000   180.000000     0.000000     1.000000     0.000000     0.250000     0.250000     0.250000
   45    -1.000000   120.000000     0.577350     0.577350    -0.577350     0.250000     0.250000     0.250000
   46     1.000000   180.000000     0.000000    -0.707107     0.707107     0.250000     0.250000     0.250000
   47     1.000000   180.000000     0.707107    -0.707107     0.000000     0.250000     0.250000     0.250000
   48     1.000000   180.000000     0.707107     0.000000    -0.707107     0.250000     0.250000     0.250000
 
 Subroutine IBZKPT returns following result:
 ===========================================
 
 Found     16 irreducible k-points:
 
 Following reciprocal coordinates:
            Coordinates               Weight
  0.000000  0.000000  0.000000      1.000000
  0.166667  0.000000  0.000000      8.000000
  0.333333  0.000000  0.000000      8.000000
  0.500000  0.000000  0.000000      4.000000
  0.166667  0.166667  0.000000      6.000000
  0.333333  0.166667  0.000000     24.000000
  0.500000  0.166667  0.000000     24.000000
 -0.333333  0.166667  0.000000     24.000000
 -0.166667  0.166667  0.000000     12.000000
  0.333333  0.333333  0.000000      6.000000
  0.500000  0.333333  0.000000     24.000000
 -0.333333  0.333333  0.000000     12.000000
  0.500000  0.500000  0.000000      3.000000
  0.500000  0.333333  0.166667     24.000000
 -0.333333  0.333333  0.166667     24.000000
 -0.333333  0.500000  0.166667     12.000000
 
 Following cartesian coordinates:
            Coordinates               Weight
  0.000000  0.000000  0.000000      1.000000
 -0.029588  0.029588  0.029588      8.000000
 -0.059175  0.059175  0.059175      8.000000
 -0.088763  0.088763  0.088763      4.000000
  0.000000  0.000000  0.059175      6.000000
 -0.029588  0.029588  0.088763     24.000000
 -0.059175  0.059175  0.118350     24.000000
  0.088763 -0.088763 -0.029588     24.000000
  0.059175 -0.059175  0.000000     12.000000
  0.000000  0.000000  0.118350      6.000000
 -0.029588  0.029588  0.147938     24.000000
  0.118350 -0.118350  0.000000     12.000000
  0.000000  0.000000  0.177525      3.000000
  0.000000  0.059175  0.118350     24.000000
  0.147938 -0.088763 -0.029588     24.000000
  0.177525 -0.118350 -0.000000     12.000000
 


--------------------------------------------------------------------------------------------------------




 Dimension of arrays:
   k-points           NKPTS =     16   k-points in BZ     NKDIM =     16   number of bands    NBANDS=     54
   number of dos      NEDOS =    301   number of ions     NIONS =      2
   non local maximal  LDIM  =      5   non local SUM 2l+1 LMDIM =     13
   total plane-waves  NPLWV =  13824
   max r-space proj   IRMAX =      1   max aug-charges    IRDMAX=  17012
   dimension x,y,z NGX =    24 NGY =   24 NGZ =   24
   dimension x,y,z NGXF=    48 NGYF=   48 NGZF=   48
   support grid    NGXF=    48 NGYF=   48 NGZF=   48
   ions per type =               2
   NGX,Y,Z   is equivalent  to a cutoff of  10.02, 10.02, 10.02 a.u.
   NGXF,Y,Z  is equivalent  to a cutoff of  20.03, 20.03, 20.03 a.u.

 SYSTEM =  unknown system                          
 POSCAR =  Ge                                      

 Startparameter for this run:
   NWRITE =      2    write-flag & timer
   PREC   = n         normal or accurate (medium, high low for compatibility)
   ISTART =      0    job   : 0-new  1-cont  2-samecut
   ICHARG =      2    charge: 1-file 2-atom 10-const
   ISPIN  =      2    spin polarized calculation?
   LNONCOLLINEAR =      F non collinear calculations
   LSORBIT =      F    spin-orbit coupling
   INIWAV =      1    electr: 0-lowe 1-rand  2-diag
   LASPH  =      F    aspherical Exc in radial PAW
   METAGGA=      F    non-selfconsistent MetaGGA calc.

 Electronic Relaxation 1
   ENCUT  =  450.0 eV  33.07 Ry    5.75 a.u.   6.89  6.89  6.89*2*pi/ulx,y,z
   ENINI  =  450.0     initial cutoff
   ENAUG  =  385.8 eV  augmentation charge cutoff
   NELM   =     60;   NELMIN=  2; NELMDL= -5     # of ELM steps 
   EDIFF  = 0.1E-03   stopping-criterion for ELM
   LREAL  =      F    real-space projection
   NLSPLINE    = F    spline interpolate recip. space projectors
   LCOMPAT=      F    compatible to vasp.4.4
   GGA_COMPAT  = T    GGA compatible to vasp.4.4-vasp.4.6
   LMAXPAW     = -100 max onsite density
   LMAXMIX     =    2 max onsite mixed and CHGCAR
   VOSKOWN=      0    Vosko Wilk Nusair interpolation
   ROPT   =    0.00000
 Ionic relaxation
   EDIFFG = 0.1E-02   stopping-criterion for IOM
   NSW    =      0    number of steps for IOM
   NBLOCK =      1;   KBLOCK =      1    inner block; outer block 
   IBRION =     -1    ionic relax: 0-MD 1-quasi-New 2-CG
   NFREE  =      0    steps in history (QN), initial steepest desc. (CG)
   ISIF   =      2    stress and relaxation
   IWAVPR =     10    prediction:  0-non 1-charg 2-wave 3-comb
   ISYM   =      2    0-nonsym 1-usesym 2-fastsym
   LCORR  =      T    Harris-Foulkes like correction to forces

   POTIM  = 0.5000    time-step for ionic-motion
   TEIN   =    0.0    initial temperature
   TEBEG  =    0.0;   TEEND  =   0.0 temperature during run
   SMASS  =  -3.00    Nose mass-parameter (am)
   estimated Nose-frequenzy (Omega)   =  0.10E-29 period in steps =****** mass=  -0.363E-27a.u.
   SCALEE = 1.0000    scale energy and forces
   NPACO  =    256;   APACO  = 16.0  distance and # of slots for P.C.
   PSTRESS=    0.0 pullay stress

  Mass of Ions in am
   POMASS =  72.61
  Ionic Valenz
   ZVAL   =   4.00
  Atomic Wigner-Seitz radii
   RWIGS  =  -1.00
  virtual crystal weights 
   VCA    =   1.00
   NELECT =       8.0000    total number of electrons
   NUPDOWN=      -1.0000    fix difference up-down

 DOS related values:
   EMIN   =  10.00;   EMAX   =-10.00  energy-range for DOS
   EFERMI =   0.00
   ISMEAR =     1;   SIGMA  =   0.05  broadening in eV -4-tet -1-fermi 0-gaus

 Electronic relaxation 2 (details)
   IALGO  =     53    algorithm
   LDIAG  =      T    sub-space diagonalisation (order eigenvalues)
   LSUBROT=      F    optimize rotation matrix (better conditioning)
   TURBO    =      0    0=normal 1=particle mesh
   IRESTART =      0    0=no restart 2=restart with 2 vectors
   NREBOOT  =      0    no. of reboots
   NMIN     =      0    reboot dimension
   EREF     =   0.00    reference energy to select bands
   IMIX   =      4    mixing-type and parameters
     AMIX     =   0.40;   BMIX     =  1.00
     AMIX_MAG =   1.60;   BMIX_MAG =  1.00
     AMIN     =   0.10
     WC   =   100.;   INIMIX=   1;  MIXPRE=   1;  MAXMIX= -45

 Intra band minimization:
   WEIMIN = 0.0000     energy-eigenvalue tresh-hold
   EBREAK =  0.46E-06  absolut break condition
   DEPER  =   0.30     relativ break condition  

   TIME   =   0.40     timestep for ELM

  volume/ion in A,a.u.               =      22.34       150.77
  Fermi-wavevector in a.u.,A,eV,Ry     =   0.922681  1.743615 11.583196  0.851341
  Thomas-Fermi vector in A             =   2.048235
 
 Write flags
   LWAVE        =      T    write WAVECAR
   LDOWNSAMPLE  =      F    k-point downsampling of WAVECAR
   LCHARG       =      T    write CHGCAR
   LVTOT        =      F    write LOCPOT, total local potential
   LVHAR        =      F    write LOCPOT, Hartree potential only
   LELF         =      F    write electronic localiz. function (ELF)
   LORBIT       =      0    0 simple, 1 ext, 2 COOP (PROOUT), +10 PAW based schemes


 Dipole corrections
   LMONO  =      F    monopole corrections only (constant potential shift)
   LDIPOL =      F    correct potential (dipole corrections)
   IDIPOL =      0    1-x, 2-y, 3-z, 4-all directions 
   EPSILON=  1.0000000 bulk dielectric constant

 LDA+U is selected, type is set to LDAUTYPE =  2
   angular momentum for each species LDAUL =     1
   U (eV)           for each species LDAUU =  -2.3
   J (eV)           for each species LDAUJ =   0.0
 Exchange correlation treatment:
   GGA     =    PE    GGA type
   LEXCH   =     8    internal setting for exchange type
   VOSKOWN=      0    Vosko Wilk Nusair interpolation
   LHFCALC =     F    Hartree Fock is set to
   LHFONE  =     F    Hartree Fock one center treatment
   AEXX    =    0.0000 exact exchange contribution

 Linear response parameters
   LEPSILON=     F    determine dielectric tensor
   LRPA    =     F    only Hartree local field effects (RPA)
   LNABLA  =     F    use nabla operator in PAW spheres
   LVEL    =     F    velocity operator in full k-point grid
   LINTERFAST=   F  fast interpolation
   KINTER  =     0    interpolate to denser k-point grid
   CSHIFT  =0.1000    complex shift for real part using Kramers Kronig
   OMEGAMAX=  -1.0    maximum frequency
   DEG_THRESHOLD= 0.2000000E-02 threshold for treating states as degnerate
   RTIME   =   -0.100 relaxation time in fs
  (WPLASMAI=    0.000 imaginary part of plasma frequency in eV, 0.658/RTIME)
   DFIELD  = 0.0000000 0.0000000 0.0000000 field for delta impulse in time
 
 Orbital magnetization related:
   ORBITALMAG=     F  switch on orbital magnetization
   LCHIMAG   =     F  perturbation theory with respect to B field
   DQ        =  0.001000  dq finite difference perturbation B field
   LLRAUG    =     F  two centre corrections for induced B field



--------------------------------------------------------------------------------------------------------


 Static calculation
 charge density and potential will be updated during run
 spin polarized calculation
 Conjugate gradient for all bands (Freysoldt, et al. PRB 79, 241103 (2009))
 perform sub-space diagonalisation
    before iterative eigenvector-optimisation
 modified Broyden-mixing scheme, WC =      100.0
 initial mixing is a Kerker type mixing with AMIX =  0.4000 and BMIX =      1.0000
 Hartree-type preconditioning will be used
 using additional bands           50
 reciprocal scheme for non local part
 use partial core corrections
 no Harris-corrections to forces 
 use gradient corrections 
 use of overlap-Matrix (Vanderbilt PP)
 Methfessel and Paxton  Order N= 1 SIGMA  =   0.05


--------------------------------------------------------------------------------------------------------


  energy-cutoff  :      450.00
  volume of cell :       44.68
      direct lattice vectors                 reciprocal lattice vectors
     0.000000000  2.816500000  2.816500000    -0.177525297  0.177525297  0.177525297
     2.816500000  0.000000000  2.816500000     0.177525297 -0.177525297  0.177525297
     2.816500000  2.816500000  0.000000000     0.177525297  0.177525297 -0.177525297

  length of vectors
     3.983132498  3.983132498  3.983132498     0.307482835  0.307482835  0.307482835


 
 k-points in units of 2pi/SCALE and weight: KPOINTS created by Atomic Simulation Env
   0.00000000  0.00000000  0.00000000       0.005
  -0.02958755  0.02958755  0.02958755       0.037
  -0.05917510  0.05917510  0.05917510       0.037
  -0.08876265  0.08876265  0.08876265       0.019
   0.00000000  0.00000000  0.05917510       0.028
  -0.02958755  0.02958755  0.08876265       0.111
  -0.05917510  0.05917510  0.11835020       0.111
   0.08876265 -0.08876265 -0.02958755       0.111
   0.05917510 -0.05917510  0.00000000       0.056
   0.00000000  0.00000000  0.11835020       0.028
  -0.02958755  0.02958755  0.14793775       0.111
   0.11835020 -0.11835020  0.00000000       0.056
   0.00000000  0.00000000  0.17752530       0.014
   0.00000000  0.05917510  0.11835020       0.111
   0.14793775 -0.08876265 -0.02958755       0.111
   0.17752530 -0.11835020 -0.00000000       0.056
 
 k-points in reciprocal lattice and weights: KPOINTS created by Atomic Simulation Env
   0.00000000  0.00000000  0.00000000       0.005
   0.16666667  0.00000000  0.00000000       0.037
   0.33333333  0.00000000  0.00000000       0.037
   0.50000000  0.00000000  0.00000000       0.019
   0.16666667  0.16666667  0.00000000       0.028
   0.33333333  0.16666667  0.00000000       0.111
   0.50000000  0.16666667  0.00000000       0.111
  -0.33333333  0.16666667  0.00000000       0.111
  -0.16666667  0.16666667  0.00000000       0.056
   0.33333333  0.33333333  0.00000000       0.028
   0.50000000  0.33333333  0.00000000       0.111
  -0.33333333  0.33333333  0.00000000       0.056
   0.50000000  0.50000000  0.00000000       0.014
   0.50000000  0.33333333  0.16666667       0.111
  -0.33333333  0.33333333  0.16666667       0.111
  -0.33333333  0.50000000  0.16666667       0.056
 
 position of ions in fractional coordinates (direct lattice) 
   0.00000000  0.00000000  0.00000000
   0.25000000  0.25000000  0.25000000
 
 position of ions in cartesian coordinates  (Angst):
   0.00000000  0.00000000  0.00000000
   1.40825000  1.40825000  1.40825000
 


--------------------------------------------------------------------------------------------------------


 k-point  1 :   0.0000 0.0000 0.0000  plane waves:     941
 k-point  2 :   0.1667 0.0000 0.0000  plane waves:     956
 k-point  3 :   0.3333 0.0000 0.0000  plane waves:     968
 k-point  4 :   0.5000 0.0000 0.0000  plane waves:     978
 k-point  5 :   0.1667 0.1667 0.0000  plane waves:     966
 k-point  6 :   0.3333 0.1667 0.0000  plane waves:     965
 k-point  7 :   0.5000 0.1667 0.0000  plane waves:     972
 k-point  8 :  -0.3333 0.1667 0.0000  plane waves:     969
 k-point  9 :  -0.1667 0.1667 0.0000  plane waves:     961
 k-point 10 :   0.3333 0.3333 0.0000  plane waves:     962
 k-point 11 :   0.5000 0.3333 0.0000  plane waves:     975
 k-point 12 :  -0.3333 0.3333 0.0000  plane waves:     981
 k-point 13 :   0.5000 0.5000 0.0000  plane waves:     982
 k-point 14 :   0.5000 0.3333 0.1667  plane waves:     974
 k-point 15 :  -0.3333 0.3333 0.1667  plane waves:     960
 k-point 16 :  -0.3333 0.5000 0.1667  plane waves:     978

 maximum and minimum number of plane-waves per node :       336      300

 maximum number of plane-waves:       982
 maximum index in each direction: 
   IXMAX=    7   IYMAX=    6   IZMAX=    6
   IXMIN=   -7   IYMIN=   -7   IZMIN=   -7


 parallel 3D FFT for wavefunctions:
    minimum data exchange during FFTs selected (reduces bandwidth)
 parallel 3D FFT for charge:
    minimum data exchange during FFTs selected (reduces bandwidth)


 total amount of memory used by VASP MPI-rank0    43400. kBytes
=======================================================================

   base      :      30000. kBytes
   nonl-proj :        569. kBytes
   fftplans  :       1049. kBytes
   grid      :       2064. kBytes
   one-center:         16. kBytes
   wavefun   :       9702. kBytes
 
     INWAV:  cpu time    0.0000: real time    0.0000
 Broyden mixing: mesh for mixing (old mesh)
   NGX = 13   NGY = 13   NGZ = 13
  (NGX  = 48   NGY  = 48   NGZ  = 48)
  gives a total of   2197 points

 initial charge density was supplied:
 charge density of overlapping atoms calculated
 number of electron       8.0000000 magnetization       0.0000000
 keeping initial charge density in first step


--------------------------------------------------------------------------------------------------------


 Maximum index for augmentation-charges         2284 (set IRDMAX)


--------------------------------------------------------------------------------------------------------


 First call to EWALD:  gamma=   0.499
 Maximum number of real-space cells 3x 3x 3
 Maximum number of reciprocal cells 3x 3x 3

    FEWALD:  cpu time    0.0015: real time    0.0015


--------------------------------------- Iteration      1(   1)  ---------------------------------------


    POTLOK:  cpu time    0.0344: real time    0.0345
    SETDIJ:  cpu time    0.0095: real time    0.0095
    TRIAL :  cpu time    0.2437: real time    0.2443
    CORREC:  cpu time    0.0008: real time    0.0008
    --------------------------------------------
      LOOP:  cpu time    0.2968: real time    0.2987

 eigenvalue-minimisations  :  4563
 total energy-change (2. order) : 0.8669050E+01  (-0.4369678E+03)
 number of electron       8.0000000 magnetization       0.0000000
 augmentation part        8.0000000 magnetization       0.0000000

 Free energy of the ion-electron system (eV)
  ---------------------------------------------------
  alpha Z        PSCENC =        17.10940282
  Ewald energy   TEWEN  =      -220.32663596
  -Hartree energ DENC   =       -12.42928696
  -exchange      EXHF   =         0.00000000
  -V(xc)+E(xc)   XCENC  =       -14.98288157
  PAW double counting   =       176.29039040     -147.53796114
  entropy T*S    EENTRO =        -0.00085982
  eigenvalues    EBANDS =         0.55543139
  atomic energy  EATOM  =       209.99145059
  ---------------------------------------------------
  free energy    TOTEN  =         8.66904974 eV

  energy without entropy =        8.66990956  energy(sigma->0) =        8.66933635


--------------------------------------------------------------------------------------------------------




--------------------------------------- Iteration      1(   2)  ---------------------------------------


    TRIAL :  cpu time    0.3090: real time    0.3092
    CORREC:  cpu time    0.0007: real time    0.0007
    --------------------------------------------
      LOOP:  cpu time    0.3101: real time    0.3102

 eigenvalue-minimisations  :  6345
 total energy-change (2. order) :-0.1936021E+02  (-0.1786356E+02)
 number of electron       8.0000000 magnetization       0.0000000
 augmentation part        8.0000000 magnetization       0.0000000

 Free energy of the ion-electron system (eV)
  ---------------------------------------------------
  alpha Z        PSCENC =        17.10940282
  Ewald energy   TEWEN  =      -220.32663596
  -Hartree energ DENC   =       -12.42928696
  -exchange      EXHF   =         0.00000000
  -V(xc)+E(xc)   XCENC  =       -14.98288157
  PAW double counting   =       176.29039040     -147.53796114
  entropy T*S    EENTRO =         0.00000811
  eigenvalues    EBANDS =       -18.80565094
  atomic energy  EATOM  =       209.99145059
  ---------------------------------------------------
  free energy    TOTEN  =       -10.69116466 eV

  energy without entropy =      -10.69117277  energy(sigma->0) =      -10.69116736


--------------------------------------------------------------------------------------------------------




--------------------------------------- Iteration      1(   3)  ---------------------------------------


    TRIAL :  cpu time    0.2971: real time    0.2971
    CORREC:  cpu time    0.0007: real time    0.0007
    --------------------------------------------
      LOOP:  cpu time    0.2980: real time    0.2981

 eigenvalue-minimisations  :  6093
 total energy-change (2. order) :-0.8964449E+00  (-0.8817655E+00)
 number of electron       8.0000000 magnetization       0.0000000
 augmentation part        8.0000000 magnetization       0.0000000

 Free energy of the ion-electron system (eV)
  ---------------------------------------------------
  alpha Z        PSCENC =        17.10940282
  Ewald energy   TEWEN  =      -220.32663596
  -Hartree energ DENC   =       -12.42928696
  -exchange      EXHF   =         0.00000000
  -V(xc)+E(xc)   XCENC  =       -14.98288157
  PAW double counting   =       176.29039040     -147.53796114
  entropy T*S    EENTRO =         0.00004186
  eigenvalues    EBANDS =       -19.70212955
  atomic energy  EATOM  =       209.99145059
  ---------------------------------------------------
  free energy    TOTEN  =       -11.58760952 eV

  energy without entropy =      -11.58765138  energy(sigma->0) =      -11.58762348


--------------------------------------------------------------------------------------------------------




--------------------------------------- Iteration      1(   4)  ---------------------------------------


    TRIAL :  cpu time    0.3112: real time    0.3128
    CORREC:  cpu time    0.0007: real time    0.0007
    --------------------------------------------
      LOOP:  cpu time    0.3122: real time    0.3138

 eigenvalue-minimisations  :  6129
 total energy-change (2. order) :-0.2704672E-01  (-0.2693461E-01)
 number of electron       8.0000000 magnetization       0.0000000
 augmentation part        8.0000000 magnetization       0.0000000

 Free energy of the ion-electron system (eV)
  ---------------------------------------------------
  alpha Z        PSCENC =        17.10940282
  Ewald energy   TEWEN  =      -220.32663596
  -Hartree energ DENC   =       -12.42928696
  -exchange      EXHF   =         0.00000000
  -V(xc)+E(xc)   XCENC  =       -14.98288157
  PAW double counting   =       176.29039040     -147.53796114
  entropy T*S    EENTRO =         0.00004027
  eigenvalues    EBANDS =       -19.72917468
  atomic energy  EATOM  =       209.99145059
  ---------------------------------------------------
  free energy    TOTEN  =       -11.61465625 eV

  energy without entropy =      -11.61469651  energy(sigma->0) =      -11.61466967


--------------------------------------------------------------------------------------------------------




--------------------------------------- Iteration      1(   5)  ---------------------------------------


    TRIAL :  cpu time    0.3004: real time    0.3005
    CORREC:  cpu time    0.0007: real time    0.0007
    CHARGE:  cpu time    0.0163: real time    0.0163
    --------------------------------------------
      LOOP:  cpu time    0.3188: real time    0.3200

 eigenvalue-minimisations  :  6093
 total energy-change (2. order) :-0.9125010E-03  (-0.9111047E-03)
 number of electron       7.9999998 magnetization      -0.0000007
 augmentation part       -1.2901644 magnetization      -0.0000046

 Free energy of the ion-electron system (eV)
  ---------------------------------------------------
  alpha Z        PSCENC =        17.10940282
  Ewald energy   TEWEN  =      -220.32663596
  -Hartree energ DENC   =       -12.42928696
  -exchange      EXHF   =         0.00000000
  -V(xc)+E(xc)   XCENC  =       -14.98288157
  PAW double counting   =       176.29039040     -147.53796114
  entropy T*S    EENTRO =         0.00004026
  eigenvalues    EBANDS =       -19.73008718
  atomic energy  EATOM  =       209.99145059
  ---------------------------------------------------
  free energy    TOTEN  =       -11.61556875 eV

  energy without entropy =      -11.61560901  energy(sigma->0) =      -11.61558217


--------------------------------------------------------------------------------------------------------




--------------------------------------- Iteration      1(   6)  ---------------------------------------


    POTLOK:  cpu time    0.0355: real time    0.0362
    SETDIJ:  cpu time    0.0092: real time    0.0092
    TRIAL :  cpu time    0.1258: real time    0.1260
    CORREC:  cpu time    0.0007: real time    0.0007
    CHARGE:  cpu time    0.0145: real time    0.0145
    --------------------------------------------
      LOOP:  cpu time    0.1865: real time    0.1896

 eigenvalue-minimisations  :     0
 total energy-change (2. order) : 0.3419381E+00  (-0.2347299E-01)
 number of electron       7.9999998 magnetization      -0.0000004
 augmentation part       -1.2848128 magnetization      -0.0000005

 Free energy of the ion-electron system (eV)
  ---------------------------------------------------
  alpha Z        PSCENC =        17.10940282
  Ewald energy   TEWEN  =      -220.32663596
  -Hartree energ DENC   =       -16.90204869
  -exchange      EXHF   =         0.00000000
  -V(xc)+E(xc)   XCENC  =       -14.25665484
  PAW double counting   =       560.27116027     -532.49904578
  entropy T*S    EENTRO =         0.00004026
  eigenvalues    EBANDS =       -14.66129927
  atomic energy  EATOM  =       209.99145059
  ---------------------------------------------------
  free energy    TOTEN  =       -11.27363061 eV

  energy without entropy =      -11.27367087  energy(sigma->0) =      -11.27364403


--------------------------------------------------------------------------------------------------------




--------------------------------------- Iteration      1(   7)  ---------------------------------------


    POTLOK:  cpu time    0.0345: real time    0.0345
    SETDIJ:  cpu time    0.0091: real time    0.0091
    TRIAL :  cpu time    0.1218: real time    0.1219
    CORREC:  cpu time    0.0007: real time    0.0007
    CHARGE:  cpu time    0.0155: real time    0.0155
    --------------------------------------------
      LOOP:  cpu time    0.1820: real time    0.1820

 eigenvalue-minimisations  :     0
 total energy-change (2. order) :-0.2040961E-01  (-0.1963980E-01)
 number of electron       7.9999998 magnetization      -0.0000000
 augmentation part       -1.2789399 magnetization       0.0000031

 Free energy of the ion-electron system (eV)
  ---------------------------------------------------
  alpha Z        PSCENC =        17.10940282
  Ewald energy   TEWEN  =      -220.32663596
  -Hartree energ DENC   =       -16.68364988
  -exchange      EXHF   =         0.00000000
  -V(xc)+E(xc)   XCENC  =       -14.26613643
  PAW double counting   =       552.46318208     -524.66963090
  entropy T*S    EENTRO =         0.00004026
  eigenvalues    EBANDS =       -14.91206279
  atomic energy  EATOM  =       209.99145059
  ---------------------------------------------------
  free energy    TOTEN  =       -11.29404021 eV

  energy without entropy =      -11.29408048  energy(sigma->0) =      -11.29405363


--------------------------------------------------------------------------------------------------------




--------------------------------------- Iteration      1(   8)  ---------------------------------------


    POTLOK:  cpu time    0.0345: real time    0.0345
    SETDIJ:  cpu time    0.0087: real time    0.0087
    TRIAL :  cpu time    0.1216: real time    0.1220
    CORREC:  cpu time    0.0007: real time    0.0007
    CHARGE:  cpu time    0.0150: real time    0.0150
    --------------------------------------------
      LOOP:  cpu time    0.1809: real time    0.1813

 eigenvalue-minimisations  :     0
 total energy-change (2. order) :-0.1599061E-01  (-0.1021149E-01)
 number of electron       7.9999998 magnetization       0.0000003
 augmentation part       -1.2744807 magnetization       0.0000050

 Free energy of the ion-electron system (eV)
  ---------------------------------------------------
  alpha Z        PSCENC =        17.10940282
  Ewald energy   TEWEN  =      -220.32663596
  -Hartree energ DENC   =       -16.43174597
  -exchange      EXHF   =         0.00000000
  -V(xc)+E(xc)   XCENC  =       -14.27726888
  PAW double counting   =       544.71997923     -516.90305413
  entropy T*S    EENTRO =         0.00004026
  eigenvalues    EBANDS =       -15.19219878
  atomic energy  EATOM  =       209.99145059
  ---------------------------------------------------
  free energy    TOTEN  =       -11.31003082 eV

  energy without entropy =      -11.31007109  energy(sigma->0) =      -11.31004424


--------------------------------------------------------------------------------------------------------




--------------------------------------- Iteration      1(   9)  ---------------------------------------


    POTLOK:  cpu time    0.0348: real time    0.0348
    SETDIJ:  cpu time    0.0085: real time    0.0085
    TRIAL :  cpu time    0.1221: real time    0.1221
    CORREC:  cpu time    0.0007: real time    0.0007
    CHARGE:  cpu time    0.0146: real time    0.0146
    --------------------------------------------
      LOOP:  cpu time    0.1811: real time    0.1811

 eigenvalue-minimisations  :     0
 total energy-change (2. order) :-0.8030819E-02  (-0.4337378E-02)
 number of electron       7.9999998 magnetization       0.0000004
 augmentation part       -1.2717604 magnetization       0.0000054

 Free energy of the ion-electron system (eV)
  ---------------------------------------------------
  alpha Z        PSCENC =        17.10940282
  Ewald energy   TEWEN  =      -220.32663596
  -Hartree energ DENC   =       -16.22297897
  -exchange      EXHF   =         0.00000000
  -V(xc)+E(xc)   XCENC  =       -14.28682907
  PAW double counting   =       539.85625811     -512.02155861
  entropy T*S    EENTRO =         0.00004026
  eigenvalues    EBANDS =       -15.41721080
  atomic energy  EATOM  =       209.99145059
  ---------------------------------------------------
  free energy    TOTEN  =       -11.31806164 eV

  energy without entropy =      -11.31810190  energy(sigma->0) =      -11.31807506


--------------------------------------------------------------------------------------------------------




--------------------------------------- Iteration      1(  10)  ---------------------------------------


    POTLOK:  cpu time    0.0346: real time    0.0346
    SETDIJ:  cpu time    0.0087: real time    0.0087
    TRIAL :  cpu time    0.1217: real time    0.1217
    CORREC:  cpu time    0.0007: real time    0.0007
    CHARGE:  cpu time    0.0145: real time    0.0145
    --------------------------------------------
      LOOP:  cpu time    0.1805: real time    0.1806

 eigenvalue-minimisations  :     0
 total energy-change (2. order) :-0.3356529E-02  (-0.1689632E-02)
 number of electron       7.9999998 magnetization       0.0000004
 augmentation part       -1.2703922 magnetization       0.0000048

 Free energy of the ion-electron system (eV)
  ---------------------------------------------------
  alpha Z        PSCENC =        17.10940282
  Ewald energy   TEWEN  =      -220.32663596
  -Hartree energ DENC   =       -16.07583390
  -exchange      EXHF   =         0.00000000
  -V(xc)+E(xc)   XCENC  =       -14.29399037
  PAW double counting   =       537.78299030     -509.93713799
  entropy T*S    EENTRO =         0.00004026
  eigenvalues    EBANDS =       -15.57170391
  atomic energy  EATOM  =       209.99145059
  ---------------------------------------------------
  free energy    TOTEN  =       -11.32141817 eV

  energy without entropy =      -11.32145843  energy(sigma->0) =      -11.32143159


--------------------------------------------------------------------------------------------------------




--------------------------------------- Iteration      1(  11)  ---------------------------------------


    POTLOK:  cpu time    0.0345: real time    0.0345
    SETDIJ:  cpu time    0.0087: real time    0.0087
    TRIAL :  cpu time    0.1217: real time    0.1217
    CORREC:  cpu time    0.0007: real time    0.0007
    CHARGE:  cpu time    0.0143: real time    0.0143
    --------------------------------------------
      LOOP:  cpu time    0.1804: real time    0.1804

 eigenvalue-minimisations  :     0
 total energy-change (2. order) :-0.1286791E-02  (-0.5943443E-03)
 number of electron       7.9999998 magnetization       0.0000005
 augmentation part       -1.2698453 magnetization       0.0000038

 Free energy of the ion-electron system (eV)
  ---------------------------------------------------
  alpha Z        PSCENC =        17.10940282
  Ewald energy   TEWEN  =      -220.32663596
  -Hartree energ DENC   =       -15.98320343
  -exchange      EXHF   =         0.00000000
  -V(xc)+E(xc)   XCENC  =       -14.29880484
  PAW double counting   =       537.62558552     -509.77369996
  entropy T*S    EENTRO =         0.00004026
  eigenvalues    EBANDS =       -15.66683996
  atomic energy  EATOM  =       209.99145059
  ---------------------------------------------------
  free energy    TOTEN  =       -11.32270496 eV

  energy without entropy =      -11.32274523  energy(sigma->0) =      -11.32271838


--------------------------------------------------------------------------------------------------------




--------------------------------------- Iteration      1(  12)  ---------------------------------------


    POTLOK:  cpu time    0.0345: real time    0.0345
    SETDIJ:  cpu time    0.0087: real time    0.0087
    TRIAL :  cpu time    0.1214: real time    0.1214
    CORREC:  cpu time    0.0007: real time    0.0007
    CHARGE:  cpu time    0.0143: real time    0.0143
    --------------------------------------------
      LOOP:  cpu time    0.1800: real time    0.1800

 eigenvalue-minimisations  :     0
 total energy-change (2. order) :-0.4351661E-03  (-0.1693975E-03)
 number of electron       7.9999998 magnetization       0.0000004
 augmentation part       -1.2697103 magnetization       0.0000027

 Free energy of the ion-electron system (eV)
  ---------------------------------------------------
  alpha Z        PSCENC =        17.10940282
  Ewald energy   TEWEN  =      -220.32663596
  -Hartree energ DENC   =       -15.93029111
  -exchange      EXHF   =         0.00000000
  -V(xc)+E(xc)   XCENC  =       -14.30172920
  PAW double counting   =       538.29128067     -510.43644176
  entropy T*S    EENTRO =         0.00004026
  eigenvalues    EBANDS =       -15.72021644
  atomic energy  EATOM  =       209.99145059
  ---------------------------------------------------
  free energy    TOTEN  =       -11.32314013 eV

  energy without entropy =      -11.32318039  energy(sigma->0) =      -11.32315355


--------------------------------------------------------------------------------------------------------




--------------------------------------- Iteration      1(  13)  ---------------------------------------


    POTLOK:  cpu time    0.0346: real time    0.0346
    SETDIJ:  cpu time    0.0085: real time    0.0087
    TRIAL :  cpu time    0.1214: real time    0.1214
    CORREC:  cpu time    0.0007: real time    0.0007
    CHARGE:  cpu time    0.0144: real time    0.0144
    --------------------------------------------
      LOOP:  cpu time    0.1801: real time    0.1803

 eigenvalue-minimisations  :     0
 total energy-change (2. order) :-0.1155597E-03  (-0.3630306E-04)
 number of electron       7.9999998 magnetization       0.0000004
 augmentation part       -1.2697470 magnetization       0.0000018

 Free energy of the ion-electron system (eV)
  ---------------------------------------------------
  alpha Z        PSCENC =        17.10940282
  Ewald energy   TEWEN  =      -220.32663596
  -Hartree energ DENC   =       -15.90304826
  -exchange      EXHF   =         0.00000000
  -V(xc)+E(xc)   XCENC  =       -14.30332530
  PAW double counting   =       539.01866465     -511.16241115
  entropy T*S    EENTRO =         0.00004026
  eigenvalues    EBANDS =       -15.74739333
  atomic energy  EATOM  =       209.99145059
  ---------------------------------------------------
  free energy    TOTEN  =       -11.32325569 eV

  energy without entropy =      -11.32329595  energy(sigma->0) =      -11.32326911


--------------------------------------------------------------------------------------------------------




--------------------------------------- Iteration      1(  14)  ---------------------------------------


    POTLOK:  cpu time    0.0345: real time    0.0345
    SETDIJ:  cpu time    0.0087: real time    0.0087
    TRIAL :  cpu time    0.1214: real time    0.1214
    CORREC:  cpu time    0.0007: real time    0.0007
    EDDIAG:  cpu time    0.0528: real time    0.0528
    CHARGE:  cpu time    0.0142: real time    0.0142
    --------------------------------------------
      LOOP:  cpu time    0.2328: real time    0.2328

 eigenvalue-minimisations  :     0
 total energy-change (2. order) :-0.2256018E-04  (-0.8041565E-05)
 number of electron       7.9999998 magnetization       0.0000003
 augmentation part       -1.2698416 magnetization       0.0000011

 Free energy of the ion-electron system (eV)
  ---------------------------------------------------
  alpha Z        PSCENC =        17.10940282
  Ewald energy   TEWEN  =      -220.32663596
  -Hartree energ DENC   =       -15.89093111
  -exchange      EXHF   =         0.00000000
  -V(xc)+E(xc)   XCENC  =       -14.30409516
  PAW double counting   =       539.48031879     -511.62332579
  entropy T*S    EENTRO =         0.00004026
  eigenvalues    EBANDS =       -15.75950268
  atomic energy  EATOM  =       209.99145059
  ---------------------------------------------------
  free energy    TOTEN  =       -11.32327825 eV

  energy without entropy =      -11.32331851  energy(sigma->0) =      -11.32329167


--------------------------------------------------------------------------------------------------------


  average scaling for gradient   1.6307


 average (electrostatic) potential at core
  the test charge radii are     1.1631
  (the norm of the test charge is              1.0000)
       1 -32.7963       2 -32.7963
 
 
 
 E-fermi :   3.5845     XC(G=0):  -9.1481     alpha+bet : -9.2781


 spin component 1

 k-point     1 :       0.0000    0.0000    0.0000
  band No.  band energies     occupation 
      1      -8.9431      1.00000
      2       3.5426      1.00002
      3       3.5426      1.00001
      4       3.5426      1.00000
      5       4.1284     -0.00000
      6       6.1855      0.00000
      7       6.1855      0.00000
      8       6.1855      0.00000
      9      10.3710      0.00000
     10      13.2130      0.00000
     11      13.2130      0.00000
     12      14.6151      0.00000
     13      14.6151      0.00000
     14      14.6151      0.00000
     15      17.7804      0.00000
     16      28.2765      0.00000
     17      28.2765      0.00000
     18      28.2765      0.00000
     19      28.8346      0.00000
     20      28.8346      0.00000
     21      28.8346      0.00000
     22      29.4909      0.00000
     23      29.4909      0.00000
     24      30.1876      0.00000
     25      30.1876      0.00000
     26      30.1876      0.00000
     27      38.6602      0.00000
     28      39.1278      0.00000
     29      39.1278      0.00000
     30      39.1278      0.00000
     31      41.9628      0.00000
     32      41.9632      0.00000
     33      42.5247      0.00000
     34      42.5249      0.00000
     35      43.4808      0.00000
     36      43.5823      0.00000
     37      43.5833      0.00000
     38      43.5847      0.00000
     39      44.0666      0.00000
     40      44.0670      0.00000
     41      44.0689      0.00000
     42      44.9167      0.00000
     43      44.9198      0.00000
     44      44.9244      0.00000
     45      45.3256      0.00000
     46      45.3275      0.00000
     47      45.3299      0.00000
     48      46.5309      0.00000
     49      46.5367      0.00000
     50      46.5431      0.00000
     51      50.2058      0.00000
     52      51.9399      0.00000
     53      52.1039      0.00000
     54      52.2397      0.00000

 k-point     2 :       0.1667    0.0000    0.0000
  band No.  band energies     occupation 
      1      -8.6098      1.00000
      2       0.5742      1.00000
      3       3.0147      1.00000
      4       3.0147      1.00000
      5       4.8162     -0.00000
      6       6.8820      0.00000
      7       6.8820      0.00000
      8       7.8966      0.00000
      9      11.6876      0.00000
     10      12.1410      0.00000
     11      12.1410      0.00000
     12      13.8507      0.00000
     13      16.9626      0.00000
     14      16.9626      0.00000
     15      19.9855      0.00000
     16      24.0373      0.00000
     17      24.0373      0.00000
     18      24.2948      0.00000
     19      29.1007      0.00000
     20      29.1007      0.00000
     21      29.4846      0.00000
     22      29.4846      0.00000
     23      30.4752      0.00000
     24      31.7577      0.00000
     25      34.7390      0.00000
     26      34.9591      0.00000
     27      34.9591      0.00000
     28      37.0597      0.00000
     29      37.0597      0.00000
     30      38.1406      0.00000
     31      38.1406      0.00000
     32      39.7682      0.00000
     33      39.7682      0.00000
     34      39.9986      0.00000
     35      41.5415      0.00000
     36      41.5546      0.00000
     37      42.9050      0.00000
     38      42.9052      0.00000
     39      43.7601      0.00000
     40      44.2286      0.00000
     41      44.6440      0.00000
     42      44.6441      0.00000
     43      45.8800      0.00000
     44      47.0920      0.00000
     45      47.1043      0.00000
     46      48.3867      0.00000
     47      48.4265      0.00000
     48      48.4412      0.00000
     49      49.9768      0.00000
     50      50.0940      0.00000
     51      50.8889      0.00000
     52      51.5063      0.00000
     53      52.8890      0.00000
     54      53.3590      0.00000

 k-point     3 :       0.3333    0.0000    0.0000
  band No.  band energies     occupation 
      1      -7.6807      1.00000
      2      -2.3649      1.00000
      3       2.3558      1.00000
      4       2.3558      1.00000
      5       4.2983     -0.00000
      6       7.4529      0.00000
      7       7.4529      0.00000
      8      10.7550      0.00000
      9      11.7592      0.00000
     10      12.7359      0.00000
     11      12.7359      0.00000
     12      16.1844      0.00000
     13      19.3194      0.00000
     14      19.3194      0.00000
     15      20.5310      0.00000
     16      20.9311      0.00000
     17      20.9311      0.00000
     18      24.2082      0.00000
     19      28.9569      0.00000
     20      29.4250      0.00000
     21      29.4250      0.00000
     22      30.1241      0.00000
     23      30.1241      0.00000
     24      31.2050      0.00000
     25      31.3546      0.00000
     26      31.3546      0.00000
     27      33.2361      0.00000
     28      35.9399      0.00000
     29      35.9399      0.00000
     30      36.5294      0.00000
     31      36.5294      0.00000
     32      36.7387      0.00000
     33      38.5361      0.00000
     34      39.1236      0.00000
     35      41.8520      0.00000
     36      41.8520      0.00000
     37      42.5585      0.00000
     38      42.5585      0.00000
     39      43.1104      0.00000
     40      44.7085      0.00000
     41      44.7085      0.00000
     42      44.8528      0.00000
     43      46.2772      0.00000
     44      49.9745      0.00000
     45      49.9799      0.00000
     46      51.2186      0.00000
     47      51.2267      0.00000
     48      52.6157      0.00000
     49      53.6117      0.00000
     50      53.7484      0.00000
     51      54.1403      0.00000
     52      56.7935      0.00000
     53      57.1445      0.00000
     54      58.2522      0.00000

 k-point     4 :       0.5000    0.0000    0.0000
  band No.  band energies     occupation 
      1      -6.8489      1.00000
      2      -3.8937      1.00000
      3       2.1113      1.00000
      4       2.1113      1.00000
      5       4.0860     -0.00000
      6       7.4454      0.00000
      7       7.4454      0.00000
      8      10.9381      0.00000
      9      14.3319      0.00000
     10      14.8802      0.00000
     11      14.9530      0.00000
     12      14.9530      0.00000
     13      16.0774      0.00000
     14      16.0774      0.00000
     15      22.6097      0.00000
     16      23.8851      0.00000
     17      25.3290      0.00000
     18      25.3290      0.00000
     19      25.5017      0.00000
     20      25.5017      0.00000
     21      28.8166      0.00000
     22      29.9944      0.00000
     23      30.2907      0.00000
     24      30.2907      0.00000
     25      30.8074      0.00000
     26      30.8074      0.00000
     27      31.7139      0.00000
     28      35.1330      0.00000
     29      35.1330      0.00000
     30      35.3268      0.00000
     31      35.3268      0.00000
     32      36.1602      0.00000
     33      37.2621      0.00000
     34      37.4082      0.00000
     35      42.5243      0.00000
     36      42.5243      0.00000
     37      42.7859      0.00000
     38      43.7223      0.00000
     39      43.7224      0.00000
     40      44.7318      0.00000
     41      48.1223      0.00000
     42      48.1261      0.00000
     43      49.4543      0.00000
     44      49.4595      0.00000
     45      50.2460      0.00000
     46      52.4237      0.00000
     47      52.9052      0.00000
     48      53.1451      0.00000
     49      54.2486      0.00000
     50      54.6306      0.00000
     51      55.4999      0.00000
     52      56.1942      0.00000
     53      58.0819      0.00000
     54      59.2856      0.00000

 k-point     5 :       0.1667    0.1667    0.0000
  band No.  band energies     occupation 
      1      -8.4956      1.00000
      2       0.6361      1.00000
      3       2.2464      1.00000
      4       2.2464      1.00000
      5       5.2927      0.00000
      6       6.5407      0.00000
      7       8.0435      0.00000
      8       8.0435      0.00000
      9      10.7184      0.00000
     10      12.2710      0.00000
     11      13.6727      0.00000
     12      15.5514      0.00000
     13      15.5514      0.00000
     14      16.3992      0.00000
     15      21.2953      0.00000
     16      23.5850      0.00000
     17      23.5850      0.00000
     18      24.7868      0.00000
     19      25.2815      0.00000
     20      28.7047      0.00000
     21      29.9328      0.00000
     22      29.9328      0.00000
     23      31.4030      0.00000
     24      34.8154      0.00000
     25      34.8154      0.00000
     26      35.0563      0.00000
     27      35.0563      0.00000
     28      35.4122      0.00000
     29      35.4634      0.00000
     30      36.3034      0.00000
     31      37.8243      0.00000
     32      40.4166      0.00000
     33      40.4166      0.00000
     34      40.6372      0.00000
     35      41.2969      0.00000
     36      41.6289      0.00000
     37      42.0627      0.00000
     38      42.0629      0.00000
     39      42.6762      0.00000
     40      45.2116      0.00000
     41      45.6495      0.00000
     42      45.6528      0.00000
     43      46.3072      0.00000
     44      47.2540      0.00000
     45      47.9039      0.00000
     46      47.9209      0.00000
     47      48.6726      0.00000
     48      48.7172      0.00000
     49      48.9169      0.00000
     50      49.9660      0.00000
     51      50.3593      0.00000
     52      51.6841      0.00000
     53      53.0994      0.00000
     54      56.3757      0.00000

 k-point     6 :       0.3333    0.1667    0.0000
  band No.  band energies     occupation 
      1      -7.7441      1.00000
      2      -1.6477      1.00000
      3       1.2955      1.00000
      4       1.6234      1.00000
      5       5.5178      0.00000
      6       6.8596      0.00000
      7       8.6890      0.00000
      8       8.9397      0.00000
      9      12.2553      0.00000
     10      13.5326      0.00000
     11      14.0114      0.00000
     12      15.8545      0.00000
     13      18.2190      0.00000
     14      19.4221      0.00000
     15      19.7507      0.00000
     16      20.0313      0.00000
     17      23.9228      0.00000
     18      24.8554      0.00000
     19      25.0300      0.00000
     20      26.3760      0.00000
     21      29.0885      0.00000
     22      30.5607      0.00000
     23      30.9441      0.00000
     24      32.1840      0.00000
     25      32.2190      0.00000
     26      33.3650      0.00000
     27      34.8624      0.00000
     28      34.9422      0.00000
     29      35.6278      0.00000
     30      35.9092      0.00000
     31      37.7416      0.00000
     32      37.8846      0.00000
     33      38.9622      0.00000
     34      39.8713      0.00000
     35      39.8926      0.00000
     36      41.2763      0.00000
     37      42.4699      0.00000
     38      43.5798      0.00000
     39      44.6853      0.00000
     40      44.8527      0.00000
     41      45.4856      0.00000
     42      45.8210      0.00000
     43      46.4839      0.00000
     44      47.4741      0.00000
     45      48.2338      0.00000
     46      48.6543      0.00000
     47      51.1037      0.00000
     48      51.6068      0.00000
     49      51.7736      0.00000
     50      52.4410      0.00000
     51      53.9628      0.00000
     52      55.7114      0.00000
     53      56.9345      0.00000
     54      57.8468      0.00000

 k-point     7 :       0.5000    0.1667    0.0000
  band No.  band energies     occupation 
      1      -6.6807      1.00000
      2      -3.6612      1.00000
      3       0.4775      1.00000
      4       1.5499      1.00000
      5       5.4072      0.00000
      6       7.5208      0.00000
      7       8.6664      0.00000
      8      10.1545      0.00000
      9      13.0259      0.00000
     10      14.8518      0.00000
     11      14.9565      0.00000
     12      15.5774      0.00000
     13      16.6096      0.00000
     14      20.0106      0.00000
     15      21.6540      0.00000
     16      22.5328      0.00000
     17      23.7351      0.00000
     18      24.5397      0.00000
     19      25.4649      0.00000
     20      26.4688      0.00000
     21      26.9603      0.00000
     22      29.3331      0.00000
     23      29.3900      0.00000
     24      30.4251      0.00000
     25      30.5864      0.00000
     26      31.4276      0.00000
     27      32.3905      0.00000
     28      32.9683      0.00000
     29      34.8287      0.00000
     30      36.1456      0.00000
     31      36.3951      0.00000
     32      37.3854      0.00000
     33      38.5048      0.00000
     34      39.4382      0.00000
     35      40.1805      0.00000
     36      42.0801      0.00000
     37      42.9584      0.00000
     38      44.2981      0.00000
     39      46.3469      0.00000
     40      46.9718      0.00000
     41      47.1484      0.00000
     42      47.7746      0.00000
     43      48.4829      0.00000
     44      48.8450      0.00000
     45      49.1965      0.00000
     46      50.9027      0.00000
     47      51.1248      0.00000
     48      52.9361      0.00000
     49      53.2262      0.00000
     50      54.0119      0.00000
     51      56.3555      0.00000
     52      57.0744      0.00000
     53      57.9461      0.00000
     54      58.8622      0.00000

 k-point     8 :      -0.3333    0.1667    0.0000
  band No.  band energies     occupation 
      1      -7.0179      1.00000
      2      -3.1151      1.00000
      3       0.2602      1.00000
      4       2.0387      1.00000
      5       5.5516      0.00000
      6       7.7893      0.00000
      7       8.1216      0.00000
      8      10.4733      0.00000
      9      12.1201      0.00000
     10      12.9053      0.00000
     11      14.8410      0.00000
     12      16.4898      0.00000
     13      18.2977      0.00000
     14      19.9860      0.00000
     15      20.0462      0.00000
     16      21.6362      0.00000
     17      24.1958      0.00000
     18      25.5037      0.00000
     19      26.1721      0.00000
     20      26.4191      0.00000
     21      27.5839      0.00000
     22      27.5998      0.00000
     23      30.3474      0.00000
     24      30.7023      0.00000
     25      31.2522      0.00000
     26      31.4226      0.00000
     27      31.4553      0.00000
     28      35.1083      0.00000
     29      35.7570      0.00000
     30      36.3315      0.00000
     31      36.6807      0.00000
     32      37.9111      0.00000
     33      38.2492      0.00000
     34      39.1001      0.00000
     35      39.9377      0.00000
     36      41.9279      0.00000
     37      42.5726      0.00000
     38      43.1346      0.00000
     39      43.4240      0.00000
     40      45.9207      0.00000
     41      47.6296      0.00000
     42      47.9973      0.00000
     43      49.1377      0.00000
     44      49.8267      0.00000
     45      49.9893      0.00000
     46      50.8639      0.00000
     47      52.1257      0.00000
     48      52.9782      0.00000
     49      53.2575      0.00000
     50      53.8939      0.00000
     51      54.6012      0.00000
     52      56.0460      0.00000
     53      56.7218      0.00000
     54      58.1343      0.00000

 k-point     9 :      -0.1667    0.1667    0.0000
  band No.  band energies     occupation 
      1      -8.0676      1.00000
      2      -0.9422      1.00000
      3       1.0143      1.00000
      4       2.8321      1.00000
      5       5.7320      0.00000
      6       7.2054      0.00000
      7       7.5018      0.00000
      8       8.8566      0.00000
      9      11.1348      0.00000
     10      13.1652      0.00000
     11      13.1840      0.00000
     12      15.5946      0.00000
     13      16.8706      0.00000
     14      19.3500      0.00000
     15      20.1726      0.00000
     16      22.4762      0.00000
     17      23.9192      0.00000
     18      24.5119      0.00000
     19      24.5513      0.00000
     20      26.4602      0.00000
     21      30.1686      0.00000
     22      30.7425      0.00000
     23      31.7353      0.00000
     24      32.8073      0.00000
     25      33.1884      0.00000
     26      33.8166      0.00000
     27      34.7076      0.00000
     28      35.6868      0.00000
     29      36.1996      0.00000
     30      36.5450      0.00000
     31      36.8364      0.00000
     32      38.4954      0.00000
     33      39.4313      0.00000
     34      39.7545      0.00000
     35      39.9982      0.00000
     36      40.6157      0.00000
     37      41.8494      0.00000
     38      42.1144      0.00000
     39      43.7147      0.00000
     40      44.7147      0.00000
     41      45.4115      0.00000
     42      46.0064      0.00000
     43      46.9555      0.00000
     44      48.0951      0.00000
     45      48.1954      0.00000
     46      48.8980      0.00000
     47      49.6847      0.00000
     48      49.7900      0.00000
     49      52.4394      0.00000
     50      53.4255      0.00000
     51      54.1485      0.00000
     52      55.1334      0.00000
     53      56.1282      0.00000
     54      57.1723      0.00000

 k-point    10 :       0.3333    0.3333    0.0000
  band No.  band energies     occupation 
      1      -7.1773      1.00000
      2      -2.3879      1.00000
      3       0.9129      1.00000
      4       0.9129      1.00000
      5       4.4286     -0.00000
      6       5.7612      0.00000
      7      10.9608      0.00000
      8      10.9608      0.00000
      9      12.2910      0.00000
     10      15.0554      0.00000
     11      15.6281      0.00000
     12      18.3207      0.00000
     13      18.3207      0.00000
     14      18.8323      0.00000
     15      19.1991      0.00000
     16      19.1991      0.00000
     17      20.6169      0.00000
     18      21.8688      0.00000
     19      27.4504      0.00000
     20      28.2755      0.00000
     21      28.6149      0.00000
     22      28.6149      0.00000
     23      29.5202      0.00000
     24      30.4012      0.00000
     25      31.1619      0.00000
     26      31.1619      0.00000
     27      32.6671      0.00000
     28      36.4574      0.00000
     29      37.3308      0.00000
     30      37.3308      0.00000
     31      38.7405      0.00000
     32      39.3202      0.00000
     33      40.5398      0.00000
     34      40.5398      0.00000
     35      40.7660      0.00000
     36      40.8442      0.00000
     37      40.8442      0.00000
     38      42.8789      0.00000
     39      43.5989      0.00000
     40      43.7063      0.00000
     41      44.4109      0.00000
     42      44.4112      0.00000
     43      46.1751      0.00000
     44      49.0155      0.00000
     45      50.3941      0.00000
     46      50.4213      0.00000
     47      51.5807      0.00000
     48      52.4022      0.00000
     49      53.1553      0.00000
     50      53.1902      0.00000
     51      53.9345      0.00000
     52      54.2629      0.00000
     53      58.2311      0.00000
     54      59.2598      0.00000

 k-point    11 :       0.5000    0.3333    0.0000
  band No.  band energies     occupation 
      1      -6.1074      1.00000
      2      -3.8870      1.00000
      3      -0.1982      1.00000
      4       0.7514      1.00000
      5       4.8319     -0.00000
      6       6.4304      0.00000
      7      10.7463      0.00000
      8      11.2820      0.00000
      9      14.1157      0.00000
     10      15.3593      0.00000
     11      15.7096      0.00000
     12      17.2884      0.00000
     13      17.7575      0.00000
     14      19.8005      0.00000
     15      20.7312      0.00000
     16      21.4205      0.00000
     17      22.0842      0.00000
     18      23.0607      0.00000
     19      23.6503      0.00000
     20      26.1327      0.00000
     21      26.3079      0.00000
     22      26.6310      0.00000
     23      28.5727      0.00000
     24      30.1038      0.00000
     25      31.8193      0.00000
     26      31.8478      0.00000
     27      33.9786      0.00000
     28      34.0472      0.00000
     29      35.5663      0.00000
     30      36.3693      0.00000
     31      37.5087      0.00000
     32      38.3333      0.00000
     33      38.8677      0.00000
     34      39.2870      0.00000
     35      41.7357      0.00000
     36      41.8143      0.00000
     37      42.8001      0.00000
     38      43.7590      0.00000
     39      44.8024      0.00000
     40      45.0268      0.00000
     41      45.7343      0.00000
     42      47.9904      0.00000
     43      48.4021      0.00000
     44      49.1195      0.00000
     45      49.8677      0.00000
     46      50.7101      0.00000
     47      51.4067      0.00000
     48      53.1280      0.00000
     49      54.4471      0.00000
     50      54.7707      0.00000
     51      56.2044      0.00000
     52      56.9259      0.00000
     53      57.4630      0.00000
     54      58.3300      0.00000

 k-point    12 :      -0.3333    0.3333    0.0000
  band No.  band energies     occupation 
      1      -5.9649      1.00000
      2      -4.0413      1.00000
      3      -0.9077      1.00000
      4       1.2044      1.00000
      5       5.2307      0.00000
      6       9.4847      0.00000
      7      10.0974      0.00000
      8      10.1205      0.00000
      9      10.9727      0.00000
     10      12.7062      0.00000
     11      17.3288      0.00000
     12      17.7043      0.00000
     13      19.3266      0.00000
     14      20.6171      0.00000
     15      21.0923      0.00000
     16      22.1007      0.00000
     17      22.2144      0.00000
     18      24.1205      0.00000
     19      25.4890      0.00000
     20      25.8326      0.00000
     21      25.9124      0.00000
     22      26.2420      0.00000
     23      28.9116      0.00000
     24      29.7052      0.00000
     25      29.7936      0.00000
     26      31.7528      0.00000
     27      31.7534      0.00000
     28      32.2274      0.00000
     29      36.7706      0.00000
     30      37.2986      0.00000
     31      37.3541      0.00000
     32      37.6784      0.00000
     33      37.9667      0.00000
     34      38.4714      0.00000
     35      41.4192      0.00000
     36      41.8161      0.00000
     37      43.0433      0.00000
     38      45.0463      0.00000
     39      45.4692      0.00000
     40      47.3680      0.00000
     41      47.8475      0.00000
     42      48.5913      0.00000
     43      49.1195      0.00000
     44      50.4234      0.00000
     45      50.4420      0.00000
     46      51.1056      0.00000
     47      51.3145      0.00000
     48      52.7259      0.00000
     49      53.2066      0.00000
     50      54.2184      0.00000
     51      55.1610      0.00000
     52      56.0453      0.00000
     53      56.0912      0.00000
     54      58.2668      0.00000

 k-point    13 :       0.5000    0.5000    0.0000
  band No.  band energies     occupation 
      1      -5.0782      1.00000
      2      -5.0782      1.00000
      3       0.4369      1.00000
      4       0.4369      1.00000
      5       4.5439     -0.00000
      6       4.5439     -0.00000
      7      13.1220      0.00000
      8      13.1220      0.00000
      9      15.3817      0.00000
     10      15.3817      0.00000
     11      16.4583      0.00000
     12      16.4583      0.00000
     13      17.3683      0.00000
     14      17.3683      0.00000
     15      22.8778      0.00000
     16      22.8778      0.00000
     17      22.8799      0.00000
     18      22.8799      0.00000
     19      22.8828      0.00000
     20      22.8828      0.00000
     21      23.5930      0.00000
     22      23.5930      0.00000
     23      30.8498      0.00000
     24      30.8498      0.00000
     25      32.1779      0.00000
     26      32.1779      0.00000
     27      35.6868      0.00000
     28      35.6868      0.00000
     29      36.4602      0.00000
     30      36.4602      0.00000
     31      38.5725      0.00000
     32      38.5725      0.00000
     33      38.7939      0.00000
     34      38.7939      0.00000
     35      40.0754      0.00000
     36      40.0754      0.00000
     37      42.5097      0.00000
     38      42.5097      0.00000
     39      42.9188      0.00000
     40      42.9188      0.00000
     41      47.0033      0.00000
     42      47.0035      0.00000
     43      49.8423      0.00000
     44      49.8448      0.00000
     45      50.3358      0.00000
     46      50.3406      0.00000
     47      55.1196      0.00000
     48      55.3479      0.00000
     49      55.9679      0.00000
     50      56.8954      0.00000
     51      57.2602      0.00000
     52      57.4082      0.00000
     53      57.9014      0.00000
     54      58.7550      0.00000

 k-point    14 :       0.5000    0.3333    0.1667
  band No.  band energies     occupation 
      1      -6.8343      1.00000
      2      -2.9677      1.00000
      3      -0.1420      1.00000
      4       1.0920      1.00000
      5       6.5202      0.00000
      6       6.9662      0.00000
      7       8.1051      0.00000
      8      10.7422      0.00000
      9      13.0455      0.00000
     10      13.6608      0.00000
     11      16.1642      0.00000
     12      16.9339      0.00000
     13      17.5326      0.00000
     14      19.5714      0.00000
     15      19.9870      0.00000
     16      21.7201      0.00000
     17      23.2659      0.00000
     18      25.0240      0.00000
     19      25.0441      0.00000
     20      25.9513      0.00000
     21      26.9304      0.00000
     22      27.9241      0.00000
     23      29.0662      0.00000
     24      30.6221      0.00000
     25      30.9046      0.00000
     26      32.4335      0.00000
     27      33.5307      0.00000
     28      34.2690      0.00000
     29      34.8170      0.00000
     30      35.8500      0.00000
     31      36.3328      0.00000
     32      38.3547      0.00000
     33      39.4260      0.00000
     34      40.1374      0.00000
     35      41.6124      0.00000
     36      42.0912      0.00000
     37      43.4398      0.00000
     38      44.3460      0.00000
     39      44.5500      0.00000
     40      44.6031      0.00000
     41      46.2954      0.00000
     42      46.4064      0.00000
     43      47.0320      0.00000
     44      49.2122      0.00000
     45      49.5340      0.00000
     46      50.7018      0.00000
     47      51.3678      0.00000
     48      52.5258      0.00000
     49      53.4083      0.00000
     50      55.3851      0.00000
     51      55.5901      0.00000
     52      56.0462      0.00000
     53      57.6077      0.00000
     54      57.9057      0.00000

 k-point    15 :      -0.3333    0.3333    0.1667
  band No.  band energies     occupation 
      1      -5.9590      1.00000
      2      -4.0780      1.00000
      3      -0.5879      1.00000
      4       0.6533      1.00000
      5       6.7900      0.00000
      6       7.3602      0.00000
      7       9.7969      0.00000
      8       9.8080      0.00000
      9      11.8128      0.00000
     10      15.5263      0.00000
     11      15.5633      0.00000
     12      16.3807      0.00000
     13      19.8920      0.00000
     14      20.4933      0.00000
     15      21.2210      0.00000
     16      21.9612      0.00000
     17      22.3219      0.00000
     18      24.6064      0.00000
     19      25.0917      0.00000
     20      25.5961      0.00000
     21      25.9273      0.00000
     22      27.9100      0.00000
[...]
     44      50.4120      0.00000
     45      50.4611      0.00000
     46      51.1152      0.00000
     47      51.2973      0.00000
     48      52.6150      0.00000
     49      53.4291      0.00000
     50      53.7523      0.00000
     51      55.0868      0.00000
     52      55.5556      0.00000
     53      56.2657      0.00000
     54      56.7980      0.00000

 k-point    13 :       0.5000    0.5000    0.0000
  band No.  band energies     occupation 
      1      -5.0782      1.00000
      2      -5.0782      1.00000
      3       0.4369      1.00000
      4       0.4369      1.00000
      5       4.5439     -0.00000
      6       4.5439     -0.00000
      7      13.1220      0.00000
      8      13.1220      0.00000
      9      15.3817      0.00000
     10      15.3817      0.00000
     11      16.4583      0.00000
     12      16.4583      0.00000
     13      17.3683      0.00000
     14      17.3683      0.00000
     15      22.8778      0.00000
     16      22.8778      0.00000
     17      22.8799      0.00000
     18      22.8799      0.00000
     19      22.8828      0.00000
     20      22.8828      0.00000
     21      23.5930      0.00000
     22      23.5930      0.00000
     23      30.8498      0.00000
     24      30.8498      0.00000
     25      32.1779      0.00000
     26      32.1779      0.00000
     27      35.6868      0.00000
     28      35.6868      0.00000
     29      36.4602      0.00000
     30      36.4602      0.00000
     31      38.5725      0.00000
     32      38.5725      0.00000
     33      38.7939      0.00000
     34      38.7939      0.00000
     35      40.0754      0.00000
     36      40.0754      0.00000
     37      42.5097      0.00000
     38      42.5097      0.00000
     39      42.9188      0.00000
     40      42.9188      0.00000
     41      47.0033      0.00000
     42      47.0038      0.00000
     43      49.8438      0.00000
     44      49.8506      0.00000
     45      50.3370      0.00000
     46      50.3396      0.00000
     47      55.1120      0.00000
     48      55.3803      0.00000
     49      56.1943      0.00000
     50      56.9884      0.00000
     51      57.1768      0.00000
     52      57.3609      0.00000
     53      57.7088      0.00000
     54      58.7762      0.00000

 k-point    14 :       0.5000    0.3333    0.1667
  band No.  band energies     occupation 
      1      -6.8343      1.00000
      2      -2.9676      1.00000
      3      -0.1420      1.00000
      4       1.0920      1.00000
      5       6.5202      0.00000
      6       6.9662      0.00000
      7       8.1051      0.00000
      8      10.7422      0.00000
      9      13.0455      0.00000
     10      13.6608      0.00000
     11      16.1642      0.00000
     12      16.9339      0.00000
     13      17.5326      0.00000
     14      19.5714      0.00000
     15      19.9870      0.00000
     16      21.7201      0.00000
     17      23.2659      0.00000
     18      25.0240      0.00000
     19      25.0441      0.00000
     20      25.9513      0.00000
     21      26.9304      0.00000
     22      27.9241      0.00000
     23      29.0662      0.00000
     24      30.6221      0.00000
     25      30.9046      0.00000
     26      32.4335      0.00000
     27      33.5307      0.00000
     28      34.2690      0.00000
     29      34.8170      0.00000
     30      35.8500      0.00000
     31      36.3328      0.00000
     32      38.3547      0.00000
     33      39.4260      0.00000
     34      40.1374      0.00000
     35      41.6124      0.00000
     36      42.0912      0.00000
     37      43.4398      0.00000
     38      44.3460      0.00000
     39      44.5501      0.00000
     40      44.6031      0.00000
     41      46.2955      0.00000
     42      46.4070      0.00000
     43      47.0318      0.00000
     44      49.2111      0.00000
     45      49.5347      0.00000
     46      50.7063      0.00000
     47      51.3737      0.00000
     48      52.5193      0.00000
     49      53.4574      0.00000
     50      55.3716      0.00000
     51      55.5870      0.00000
     52      55.8422      0.00000
     53      57.3704      0.00000
     54      58.7714      0.00000

 k-point    15 :      -0.3333    0.3333    0.1667
  band No.  band energies     occupation 
      1      -5.9590      1.00000
      2      -4.0780      1.00000
      3      -0.5879      1.00000
      4       0.6533      1.00000
      5       6.7900      0.00000
      6       7.3602      0.00000
      7       9.7969      0.00000
      8       9.8080      0.00000
      9      11.8128      0.00000
     10      15.5263      0.00000
     11      15.5633      0.00000
     12      16.3807      0.00000
     13      19.8920      0.00000
     14      20.4933      0.00000
     15      21.2210      0.00000
     16      21.9612      0.00000
     17      22.3219      0.00000
     18      24.6064      0.00000
     19      25.0917      0.00000
     20      25.5961      0.00000
     21      25.9273      0.00000
     22      27.9100      0.00000
     23      28.2619      0.00000
     24      28.8557      0.00000
     25      30.1973      0.00000
     26      31.7047      0.00000
     27      32.9403      0.00000
     28      33.3492      0.00000
     29      33.5073      0.00000
     30      34.4512      0.00000
     31      36.4409      0.00000
     32      38.4474      0.00000
     33      40.7585      0.00000
     34      41.4980      0.00000
     35      41.9426      0.00000
     36      42.8145      0.00000
     37      43.3162      0.00000
     38      43.8958      0.00000
     39      45.0673      0.00000
     40      45.5118      0.00000
     41      46.0284      0.00000
     42      47.8834      0.00000
     43      48.9427      0.00000
     44      49.5612      0.00000
     45      50.6917      0.00000
     46      51.6840      0.00000
     47      52.3648      0.00000
     48      52.4607      0.00000
     49      54.4319      0.00000
     50      54.7458      0.00000
     51      55.1330      0.00000
     52      55.7461      0.00000
     53      56.3167      0.00000
     54      57.1419      0.00000

 k-point    16 :      -0.3333    0.5000    0.1667
  band No.  band energies     occupation 
      1      -4.9990      1.00000
      2      -4.9990      1.00000
      3      -0.1961      1.00000
      4      -0.1961      1.00000
      5       6.4599      0.00000
      6       6.4599      0.00000
      7      10.2945      0.00000
      8      10.2945      0.00000
      9      14.6955      0.00000
     10      14.6955      0.00000
     11      16.6546      0.00000
     12      16.6546      0.00000
     13      20.3815      0.00000
     14      20.3815      0.00000
     15      20.9141      0.00000
     16      20.9141      0.00000
     17      21.9478      0.00000
     18      21.9478      0.00000
     19      25.6604      0.00000
     20      25.6604      0.00000
     21      26.7712      0.00000
     22      26.7712      0.00000
     23      27.2749      0.00000
     24      27.2749      0.00000
     25      31.4236      0.00000
     26      31.4236      0.00000
     27      33.0430      0.00000
     28      33.0430      0.00000
     29      35.8550      0.00000
     30      35.8550      0.00000
     31      38.7150      0.00000
     32      38.7150      0.00000
     33      38.8115      0.00000
     34      38.8115      0.00000
     35      42.2038      0.00000
     36      42.2038      0.00000
     37      44.2845      0.00000
     38      44.2845      0.00000
     39      44.3555      0.00000
     40      44.3555      0.00000
     41      48.2686      0.00000
     42      48.2698      0.00000
     43      49.5210      0.00000
     44      49.5226      0.00000
     45      50.7487      0.00000
     46      50.7725      0.00000
     47      51.1003      0.00000
     48      51.1157      0.00000
     49      53.8338      0.00000
     50      53.8963      0.00000
     51      56.5489      0.00000
     52      57.0521      0.00000
     53      58.2765      0.00000
     54      59.0071      0.00000


--------------------------------------------------------------------------------------------------------


 soft charge-density along one line, spin component           1
         0         1         2         3         4         5         6         7         8         9
 total charge-density along one line
 
 soft charge-density along one line, spin component           2
         0         1         2         3         4         5         6         7         8         9
 total charge-density along one line
 
 pseudopotential strength for first ion, spin component:           1
 14.455   0.000  18.034   0.000   0.000   0.000   0.000   0.000   0.000   0.000   0.000   0.000   0.000   0.000   0.000   0.000
 18.034   0.000  22.514   0.000   0.000   0.000   0.000   0.000   0.000   0.000   0.000   0.000   0.000   0.000   0.000   0.000
  0.000   0.000   0.000   0.000   2.986   0.000   0.000  -0.000   0.000  -0.000   5.125   0.000   0.000  -0.000   0.000  -0.000
  0.000   0.000   0.000   0.000   0.000   0.000   2.986   0.000   0.000   0.000   0.000   0.000   5.125   0.000   0.000   0.000
  0.000   0.000   0.000   0.000   0.000   0.000   0.000  -0.000   2.986   0.000   0.000   0.000   0.000  -0.000   5.125   0.000
  0.000   0.000   0.000   0.000   5.125   0.000   0.000  -0.000   0.000  -0.000   8.835   0.000   0.000  -0.000   0.000  -0.000
  0.000   0.000   0.000   0.000   0.000   0.000   5.125   0.000   0.000   0.000   0.000   0.000   8.835   0.000   0.000   0.000
  0.000   0.000   0.000   0.000   0.000   0.000   0.000  -0.000   5.125   0.000   0.000   0.000   0.000  -0.000   8.835   0.000
  0.000   0.000   0.000   0.000   0.000   0.000   0.003   0.000   0.000   0.000   0.000   0.000   0.004   0.000   0.000   0.000
  0.000   0.000   0.000   0.000   0.000   0.000   0.000   0.000   0.003   0.000   0.000   0.000   0.000   0.000   0.004   0.000
 -0.000   0.000  -0.000   0.000   0.000   0.000  -0.000   0.000   0.000   0.000   0.000   0.000  -0.000   0.000   0.000   0.000
  0.000   0.000   0.000   0.000   0.003   0.000   0.000   0.000   0.000   0.000   0.004   0.000   0.000   0.000   0.000   0.000
 -0.000   0.000  -0.000   0.000   0.000   0.000   0.000   0.000  -0.000   0.000   0.000   0.000   0.000   0.000  -0.000   0.000
 pseudopotential strength for first ion, spin component:           2
 14.455   0.000  18.034   0.000   0.000   0.000   0.000   0.000   0.000   0.000   0.000   0.000   0.000   0.000   0.000   0.000
 18.034   0.000  22.514   0.000   0.000   0.000   0.000   0.000   0.000   0.000   0.000   0.000   0.000   0.000   0.000   0.000
  0.000   0.000   0.000   0.000   2.986   0.000   0.000  -0.000   0.000  -0.000   5.125   0.000   0.000  -0.000   0.000  -0.000
  0.000   0.000   0.000   0.000   0.000   0.000   2.986   0.000   0.000   0.000   0.000   0.000   5.125   0.000   0.000   0.000
  0.000   0.000   0.000   0.000   0.000   0.000   0.000  -0.000   2.986   0.000   0.000   0.000   0.000  -0.000   5.125   0.000
  0.000   0.000   0.000   0.000   5.125   0.000   0.000  -0.000   0.000  -0.000   8.835   0.000   0.000  -0.000   0.000  -0.000
  0.000   0.000   0.000   0.000   0.000   0.000   5.125   0.000   0.000   0.000   0.000   0.000   8.835   0.000   0.000   0.000
  0.000   0.000   0.000   0.000   0.000   0.000   0.000  -0.000   5.125   0.000   0.000   0.000   0.000  -0.000   8.835   0.000
  0.000   0.000   0.000   0.000   0.000   0.000   0.003   0.000   0.000   0.000   0.000   0.000   0.004   0.000   0.000   0.000
  0.000   0.000   0.000   0.000   0.000   0.000   0.000   0.000   0.003   0.000   0.000   0.000   0.000   0.000   0.004   0.000
 -0.000   0.000  -0.000   0.000   0.000   0.000  -0.000   0.000   0.000   0.000   0.000   0.000  -0.000   0.000   0.000   0.000
  0.000   0.000   0.000   0.000   0.003   0.000   0.000   0.000   0.000   0.000   0.004   0.000   0.000   0.000   0.000   0.000
 -0.000   0.000  -0.000   0.000   0.000   0.000   0.000   0.000  -0.000   0.000   0.000   0.000   0.000   0.000  -0.000   0.000
 total augmentation occupancy for first ion, spin component:           1
  3.799  -1.194   0.000   0.000   0.000   0.000   0.000  -0.000  -0.000  -0.000   0.000  -0.000   0.000
 -1.194   0.505  -0.000   0.000   0.000  -0.000   0.000   0.000  -0.000   0.000   0.000  -0.000   0.000
 -0.000  -0.000   2.421   0.000  -0.000  -0.464  -0.000  -0.000   0.000  -0.000   0.000   0.201   0.000
 -0.000  -0.000   0.000   2.421  -0.000   0.000  -0.464   0.000   0.201   0.000  -0.000  -0.000  -0.000
 -0.000  -0.000   0.000   0.000   2.421   0.000   0.000  -0.464   0.000   0.201   0.000   0.000   0.000
 -0.000  -0.000  -0.464   0.000   0.000   0.095  -0.000   0.000  -0.000  -0.000   0.000  -0.039  -0.000
  0.000  -0.000  -0.000  -0.464   0.000  -0.000   0.095   0.000  -0.039  -0.000  -0.000  -0.000  -0.000
  0.000   0.000   0.000  -0.000  -0.464   0.000  -0.000   0.095  -0.000  -0.039   0.000  -0.000   0.000
  0.000  -0.000   0.000   0.201   0.000   0.000  -0.039  -0.000   0.029   0.000  -0.000   0.000   0.000
  0.000   0.000   0.000  -0.000   0.201  -0.000  -0.000  -0.039   0.000   0.029   0.000   0.000   0.000
  0.000   0.000   0.000  -0.000   0.000   0.000   0.000   0.000  -0.000   0.000   0.008  -0.000   0.000
 -0.000  -0.000   0.201   0.000   0.000  -0.039  -0.000  -0.000   0.000   0.000  -0.000   0.029   0.000
  0.000   0.000   0.000  -0.000  -0.000  -0.000   0.000   0.000   0.000  -0.000   0.000   0.000   0.008
 total augmentation occupancy for first ion, spin component:           2
  0.000  -0.000  -0.000   0.000  -0.000   0.000   0.000   0.000   0.000   0.000   0.000  -0.000   0.000
 -0.000   0.000  -0.000   0.000   0.000  -0.000  -0.000  -0.000   0.000   0.000   0.000  -0.000   0.000
 -0.000  -0.000  -0.000  -0.000   0.000   0.000  -0.000  -0.000   0.000  -0.000   0.000  -0.000   0.000
  0.000   0.000  -0.000  -0.000   0.000  -0.000   0.000  -0.000  -0.000   0.000  -0.000   0.000   0.000
 -0.000   0.000   0.000   0.000  -0.000  -0.000  -0.000   0.000   0.000  -0.000  -0.000  -0.000   0.000
  0.000  -0.000   0.000  -0.000  -0.000  -0.000  -0.000   0.000  -0.000   0.000   0.000   0.000  -0.000
  0.000  -0.000  -0.000   0.000  -0.000  -0.000  -0.000   0.000   0.000  -0.000  -0.000  -0.000   0.000
  0.000  -0.000  -0.000  -0.000   0.000   0.000   0.000  -0.000  -0.000   0.000   0.000   0.000  -0.000
  0.000   0.000   0.000  -0.000   0.000  -0.000   0.000  -0.000   0.000   0.000  -0.000  -0.000  -0.000
  0.000   0.000  -0.000   0.000  -0.000   0.000  -0.000   0.000   0.000   0.000  -0.000   0.000   0.000
  0.000  -0.000   0.000  -0.000  -0.000   0.000   0.000  -0.000  -0.000   0.000   0.000   0.000   0.000
 -0.000  -0.000  -0.000   0.000  -0.000   0.000  -0.000   0.000  -0.000   0.000  -0.000   0.000   0.000
  0.000   0.000   0.000   0.000  -0.000  -0.000   0.000   0.000  -0.000  -0.000   0.000   0.000   0.000


------------------------ aborting loop because EDIFF is reached ----------------------------------------


    FORLOC:  cpu time    0.0013: real time    0.0013
    FORNL :  cpu time    0.0282: real time    0.0282
    STRESS:  cpu time    0.0799: real time    0.0802
    FORCOR:  cpu time    0.0316: real time    0.0316
    OFIELD:  cpu time    0.0002: real time    0.0002

  FORCE on cell =-STRESS in cart. coord.  units (eV):
  Direction    XX          YY          ZZ          XY          YZ          ZX
  --------------------------------------------------------------------------------------
  Alpha Z    17.10940    17.10940    17.10940
  Ewald     -73.44225   -73.44225   -73.44225     0.00000     0.00000     0.00000
  Hartree     5.29566     5.29566     5.29566     0.00000     0.00000     0.00000
  E(xc)     -27.98450   -27.98450   -27.98450     0.00000     0.00000     0.00000
  Local     -24.05480   -24.05480   -24.05480     0.00000     0.00000     0.00000
  n-local    40.10233    40.57518    37.40115     1.26440    -0.57263     0.34842
  augment     2.36674     2.36674     2.36674    -0.00000    -0.00000    -0.00000
  Kinetic    63.76305    62.66185    57.99258     4.11538    -1.35525     1.18580
  Fock        0.00000     0.00000     0.00000     0.00000     0.00000     0.00000
  -------------------------------------------------------------------------------------
  Total       0.12232     0.12232     0.12232    -0.00000    -0.00000     0.00000
  in kB       4.38573     4.38573     4.38573    -0.00000    -0.00000     0.00000
  external pressure =        4.39 kB  Pullay stress =        0.00 kB


 VOLUME and BASIS-vectors are now :
 -----------------------------------------------------------------------------
  energy-cutoff  :      450.00
  volume of cell :       44.68
      direct lattice vectors                 reciprocal lattice vectors
     0.000000000  2.816500000  2.816500000    -0.177525297  0.177525297  0.177525297
     2.816500000  0.000000000  2.816500000     0.177525297 -0.177525297  0.177525297
     2.816500000  2.816500000  0.000000000     0.177525297  0.177525297 -0.177525297

  length of vectors
     3.983132498  3.983132498  3.983132498     0.307482835  0.307482835  0.307482835


 FORCES acting on ions:
    Electron-Ion                     Ewald-Force                    Non-Local-Force
 -----------------------------------------------------------------------------------------------
   -.130E-06 -.130E-06 -.130E-06   0.204E-14 0.421E-14 0.352E-14   0.382E-16 0.208E-16 0.373E-16
   0.130E-06 0.130E-06 0.130E-06   -.214E-14 -.407E-14 -.341E-14   -.382E-16 -.243E-16 -.399E-16
 -----------------------------------------------------------------------------------------------
   -.391E-13 0.502E-14 0.696E-14   -.101E-15 0.144E-15 0.110E-15   0.000E+00 -.347E-17 -.260E-17
 
 
 POSITION                                       TOTAL-FORCE (eV/Angst)
 -----------------------------------------------------------------------------------
      0.00000      0.00000      0.00000        -0.000000     -0.000000      0.000000
      1.40825      1.40825      1.40825         0.000000      0.000000     -0.000000
 -----------------------------------------------------------------------------------
    total drift:                               -0.000000      0.000000      0.000000


--------------------------------------------------------------------------------------------------------



  FREE ENERGIE OF THE ION-ELECTRON SYSTEM (eV)
  ---------------------------------------------------
  free  energy   TOTEN  =       -11.32327825 eV

  energy  without entropy=      -11.32331851  energy(sigma->0) =      -11.32329167
 


--------------------------------------------------------------------------------------------------------


    POTLOK:  cpu time    0.0432: real time    0.0432


--------------------------------------------------------------------------------------------------------


 writing wavefunctions
     LOOP+:  cpu time    3.8933: real time    4.6689
    4ORBIT:  cpu time    0.0000: real time    0.0000

 total amount of memory used by VASP MPI-rank0    43400. kBytes
=======================================================================

   base      :      30000. kBytes
   nonl-proj :        569. kBytes
   fftplans  :       1049. kBytes
   grid      :       2064. kBytes
   one-center:         16. kBytes
   wavefun   :       9702. kBytes
 
  
  
 General timing and accounting informations for this job:
 ========================================================
  
                  Total CPU time used (sec):        6.023
                            User time (sec):        5.714
                          System time (sec):        0.310
                         Elapsed time (sec):        7.278
  
                   Maximum memory used (kb):      163212.
                   Average memory used (kb):           0.
  
                          Minor page faults:        26014
                          Major page faults:            0
                 Voluntary context switches:         3468
