<?xml version="1.0" encoding="ISO-8859-1"?>
<modeling>
 <generator>
  <i name="program" type="string">vasp </i>
  <i name="version" type="string">5.4.4.18Apr17-6-g9f103f2a35  </i>
  <i name="subversion" type="string">(build Nov 08 2017 12:56:59) complex            parallel </i>
  <i name="platform" type="string">LinuxIFC </i>
  <i name="date" type="string">2020 06 23 </i>
  <i name="time" type="string">11:36:59 </i>
 </generator>
 <incar>
  <i type="int" name="ISTART">     0</i>
  <i type="string" name="PREC">n</i>
  <i type="string" name="ALGO"> D</i>
  <i type="int" name="ICHARG">     2</i>
  <i name="ENCUT">    450.00000000</i>
  <i name="SIGMA">      0.05000000</i>
  <i type="int" name="LMAXMIX">     2</i>
  <v type="int" name="KPOINT_BSE">    -1     0     0     0</v>
  <i type="string" name="GGA"> PE</i>
  <i type="logical" name="LDAU"> T  </i>
  <v type="int" name="LDAUL">     1</v>
  <v name="LDAUU">     -1.35900000</v>
  <v name="LDAUJ">      0.00000000</v>
 </incar>
 <structure name="primitive_cell" >
  <crystal>
   <varray name="basis" >
    <v>       0.00000000       2.81650000       2.81650000 </v>
    <v>       2.81650000       0.00000000       2.81650000 </v>
    <v>       2.81650000       2.81650000       0.00000000 </v>
   </varray>
   <i name="volume">     44.68474278 </i>
   <varray name="rec_basis" >
    <v>      -0.17752530       0.17752530       0.17752530 </v>
    <v>       0.17752530      -0.17752530       0.17752530 </v>
    <v>       0.17752530       0.17752530      -0.17752530 </v>
   </varray>
  </crystal>
  <varray name="positions" >
   <v>       0.00000000       0.00000000       0.00000000 </v>
   <v>       0.25000000       0.25000000       0.25000000 </v>
  </varray>
 </structure>
 <varray name="primitive_index" >
  <v type="int" >        1 </v>
  <v type="int" >        2 </v>
 </varray>
 <kpoints>
  <generation param="Gamma">
   <v type="int" name="divisions">       6        6        6 </v>
   <v name="usershift">      0.00000000       0.00000000       0.00000000 </v>
   <v name="genvec1">      0.16666667       0.00000000       0.00000000 </v>
   <v name="genvec2">      0.00000000       0.16666667       0.00000000 </v>
   <v name="genvec3">      0.00000000       0.00000000       0.16666667 </v>
   <v name="shift">      0.00000000       0.00000000       0.00000000 </v>
  </generation>
  <varray name="kpointlist" >
   <v>       0.00000000       0.00000000       0.00000000 </v>
   <v>       0.16666667       0.00000000       0.00000000 </v>
   <v>       0.33333333       0.00000000       0.00000000 </v>
   <v>       0.50000000       0.00000000       0.00000000 </v>
   <v>       0.16666667       0.16666667       0.00000000 </v>
   <v>       0.33333333       0.16666667       0.00000000 </v>
   <v>       0.50000000       0.16666667       0.00000000 </v>
   <v>      -0.33333333       0.16666667       0.00000000 </v>
   <v>      -0.16666667       0.16666667       0.00000000 </v>
   <v>       0.33333333       0.33333333       0.00000000 </v>
   <v>       0.50000000       0.33333333       0.00000000 </v>
   <v>      -0.33333333       0.33333333       0.00000000 </v>
   <v>       0.50000000       0.50000000       0.00000000 </v>
   <v>       0.50000000       0.33333333       0.16666667 </v>
   <v>      -0.33333333       0.33333333       0.16666667 </v>
   <v>      -0.33333333       0.50000000       0.16666667 </v>
  </varray>
  <varray name="weights" >
   <v>       0.00462963 </v>
   <v>       0.03703704 </v>
   <v>       0.03703704 </v>
   <v>       0.01851852 </v>
   <v>       0.02777778 </v>
   <v>       0.11111111 </v>
   <v>       0.11111111 </v>
   <v>       0.11111111 </v>
   <v>       0.05555556 </v>
   <v>       0.02777778 </v>
   <v>       0.11111111 </v>
   <v>       0.05555556 </v>
   <v>       0.01388889 </v>
   <v>       0.11111111 </v>
   <v>       0.11111111 </v>
   <v>       0.05555556 </v>
  </varray>
 </kpoints>
 <parameters>
  <separator name="general" >
   <i type="string" name="SYSTEM">unknown system</i>
   <i type="logical" name="LCOMPAT"> F  </i>
  </separator>
  <separator name="electronic" >
   <i type="string" name="PREC">n</i>
   <i name="ENMAX">    450.00000000</i>
   <i name="ENAUG">    385.84300000</i>
   <i name="EDIFF">      0.00010000</i>
   <i type="int" name="IALGO">    53</i>
   <i type="int" name="IWAVPR">    10</i>
   <i type="int" name="NBANDS">    56</i>
   <i name="NELECT">      8.00000000</i>
   <i type="int" name="TURBO">     0</i>
   <i type="int" name="IRESTART">     0</i>
   <i type="int" name="NREBOOT">     0</i>
   <i type="int" name="NMIN">     0</i>
   <i name="EREF">      0.00000000</i>
   <separator name="electronic smearing" >
    <i type="int" name="ISMEAR">     1</i>
    <i name="SIGMA">      0.05000000</i>
    <i name="KSPACING">      0.50000000</i>
    <i type="logical" name="KGAMMA"> T  </i>
   </separator>
   <separator name="electronic projectors" >
    <i type="logical" name="LREAL"> F  </i>
    <v name="ROPT">      0.00000000</v>
    <i type="int" name="LMAXPAW">  -100</i>
    <i type="int" name="LMAXMIX">     2</i>
    <i type="logical" name="NLSPLINE"> F  </i>
   </separator>
   <separator name="electronic startup" >
    <i type="int" name="ISTART">     0</i>
    <i type="int" name="ICHARG">     2</i>
    <i type="int" name="INIWAV">     1</i>
   </separator>
   <separator name="electronic spin" >
    <i type="int" name="ISPIN">     1</i>
    <i type="logical" name="LNONCOLLINEAR"> F  </i>
    <v name="MAGMOM">      1.00000000      1.00000000</v>
    <i name="NUPDOWN">     -1.00000000</i>
    <i type="logical" name="LSORBIT"> F  </i>
    <v name="SAXIS">      0.00000000      0.00000000      1.00000000</v>
    <i type="logical" name="LSPIRAL"> F  </i>
    <v name="QSPIRAL">      0.00000000      0.00000000      0.00000000</v>
    <i type="logical" name="LZEROZ"> F  </i>
   </separator>
   <separator name="electronic exchange-correlation" >
    <i type="logical" name="LASPH"> F  </i>
    <i type="logical" name="LMETAGGA"> F  </i>
   </separator>
   <separator name="electronic convergence" >
    <i type="int" name="NELM">    60</i>
    <i type="int" name="NELMDL">    -5</i>
    <i type="int" name="NELMIN">     2</i>
    <i name="ENINI">    450.00000000</i>
    <separator name="electronic convergence detail" >
     <i type="logical" name="LDIAG"> T  </i>
     <i type="logical" name="LSUBROT"> F  </i>
     <i name="WEIMIN">      0.00000000</i>
     <i name="EBREAK">      0.00000045</i>
     <i name="DEPER">      0.30000000</i>
     <i type="int" name="NRMM">     4</i>
     <i name="TIME">      0.40000000</i>
    </separator>
   </separator>
   <separator name="electronic mixer" >
    <i name="AMIX">      0.40000000</i>
    <i name="BMIX">      1.00000000</i>
    <i name="AMIN">      0.10000000</i>
    <i name="AMIX_MAG">      1.60000000</i>
    <i name="BMIX_MAG">      1.00000000</i>
    <separator name="electronic mixer details" >
     <i type="int" name="IMIX">     4</i>
     <i type="logical" name="MIXFIRST"> F  </i>
     <i type="int" name="MAXMIX">   -45</i>
     <i name="WC">    100.00000000</i>
     <i type="int" name="INIMIX">     1</i>
     <i type="int" name="MIXPRE">     1</i>
     <i type="int" name="MREMOVE">     5</i>
    </separator>
   </separator>
   <separator name="electronic dipolcorrection" >
    <i type="logical" name="LDIPOL"> F  </i>
    <i type="logical" name="LMONO"> F  </i>
    <i type="int" name="IDIPOL">     0</i>
    <i name="EPSILON">      1.00000000</i>
    <v name="DIPOL">   -100.00000000   -100.00000000   -100.00000000</v>
    <i name="EFIELD">      0.00000000</i>
   </separator>
  </separator>
  <separator name="grids" >
   <i type="int" name="NGX">    24</i>
   <i type="int" name="NGY">    24</i>
   <i type="int" name="NGZ">    24</i>
   <i type="int" name="NGXF">    48</i>
   <i type="int" name="NGYF">    48</i>
   <i type="int" name="NGZF">    48</i>
   <i type="logical" name="ADDGRID"> F  </i>
  </separator>
  <separator name="ionic" >
   <i type="int" name="NSW">     0</i>
   <i type="int" name="IBRION">    -1</i>
   <i type="int" name="MDALGO">     0</i>
   <i type="int" name="ISIF">     2</i>
   <i name="PSTRESS">      0.00000000</i>
   <i name="EDIFFG">      0.00100000</i>
   <i type="int" name="NFREE">     0</i>
   <i name="POTIM">      0.50000000</i>
   <i name="SMASS">     -3.00000000</i>
   <i name="SCALEE">      1.00000000</i>
  </separator>
  <separator name="ionic md" >
   <i name="TEBEG">      0.00010000</i>
   <i name="TEEND">      0.00010000</i>
   <i type="int" name="NBLOCK">     1</i>
   <i type="int" name="KBLOCK">     1</i>
   <i type="int" name="NPACO">   256</i>
   <i name="APACO">     16.00000000</i>
  </separator>
  <separator name="symmetry" >
   <i type="int" name="ISYM">     2</i>
   <i name="SYMPREC">      0.00001000</i>
  </separator>
  <separator name="dos" >
   <i type="int" name="LORBIT">     0</i>
   <v name="RWIGS">     -1.00000000</v>
   <i type="int" name="NEDOS">   301</i>
   <i name="EMIN">     10.00000000</i>
   <i name="EMAX">    -10.00000000</i>
   <i name="EFERMI">      0.00000000</i>
  </separator>
  <separator name="writing" >
   <i type="int" name="NWRITE">     2</i>
   <i type="logical" name="LWAVE"> T  </i>
   <i type="logical" name="LDOWNSAMPLE"> F  </i>
   <i type="logical" name="LCHARG"> T  </i>
   <i type="logical" name="LPARD"> F  </i>
   <i type="logical" name="LVTOT"> F  </i>
   <i type="logical" name="LVHAR"> F  </i>
   <i type="logical" name="LELF"> F  </i>
   <i type="logical" name="LOPTICS"> F  </i>
   <v name="STM">      0.00000000      0.00000000      0.00000000      0.00000000      0.00000000      0.00000000      0.00000000</v>
  </separator>
  <separator name="performance" >
   <i type="int" name="NPAR">    56</i>
   <i type="int" name="NSIM">     4</i>
   <i type="int" name="NBLK">    -1</i>
   <i type="logical" name="LPLANE"> T  </i>
   <i type="logical" name="LSCALAPACK"> T  </i>
   <i type="logical" name="LSCAAWARE"> T  </i>
   <i type="logical" name="LSCALU"> F  </i>
   <i type="logical" name="LASYNC"> F  </i>
   <i type="logical" name="LORBITALREAL"> F  </i>
  </separator>
  <separator name="miscellaneous" >
   <i type="int" name="IDIOT">     3</i>
   <i type="int" name="ISPECIAL">     0</i>
   <i type="logical" name="LMUSIC"> F  </i>
   <v name="POMASS">     72.61000000</v>
   <v name="DARWINR">      0.00000000</v>
   <v name="DARWINV">      1.00000000</v>
   <i type="logical" name="LCORR"> T  </i>
  </separator>
  <i type="logical" name="GGA_COMPAT"> T  </i>
  <i type="logical" name="LBERRY"> F  </i>
  <i type="int" name="ICORELEVEL">     0</i>
  <i type="logical" name="LDAU"> T  </i>
  <v type="int" name="LDAUTYPE">     2</v>
  <v type="int" name="LDAUL">     1</v>
  <v name="LDAUU">     -1.35900000</v>
  <v name="LDAUJ">      0.00000000</v>
  <i type="int" name="LDAUPRINT">     0</i>
  <i type="int" name="I_CONSTRAINED_M">     0</i>
  <separator name="electronic exchange-correlation" >
   <i type="string" name="GGA">PE</i>
   <i type="int" name="VOSKOWN">     0</i>
   <i type="logical" name="LHFCALC"> F  </i>
   <i type="string" name="PRECFOCK"></i>
   <i type="logical" name="LSYMGRAD"> F  </i>
   <i type="logical" name="LHFONE"> F  </i>
   <i type="logical" name="LRHFCALC"> F  </i>
   <i type="logical" name="LTHOMAS"> F  </i>
   <i type="logical" name="LMODELHF"> F  </i>
   <i name="ENCUT4O">     -1.00000000</i>
   <i type="int" name="EXXOEP">     0</i>
   <i type="int" name="FOURORBIT">     0</i>
   <i name="AEXX">      0.00000000</i>
   <i name="HFALPHA">      0.00000000</i>
   <i name="MCALPHA">      0.00000000</i>
   <i name="ALDAX">      1.00000000</i>
   <i name="AGGAX">      1.00000000</i>
   <i name="ALDAC">      1.00000000</i>
   <i name="AGGAC">      1.00000000</i>
   <i type="int" name="NKREDX">     1</i>
   <i type="int" name="NKREDY">     1</i>
   <i type="int" name="NKREDZ">     1</i>
   <i type="logical" name="SHIFTRED"> F  </i>
   <i type="logical" name="ODDONLY"> F  </i>
   <i type="logical" name="EVENONLY"> F  </i>
   <i type="int" name="LMAXFOCK">     0</i>
   <i type="int" name="NMAXFOCKAE">     0</i>
   <i type="logical" name="LFOCKAEDFT"> F  </i>
   <i name="HFSCREEN">      0.00000000</i>
   <i name="HFSCREENC">      0.00000000</i>
   <i type="int" name="NBANDSGWLOW">     0</i>
  </separator>
  <separator name="vdW DFT" >
   <i type="logical" name="LUSE_VDW"> F  </i>
   <i name="Zab_VDW">     -0.84910000</i>
   <i name="PARAM1">      0.12340000</i>
   <i name="PARAM2">      1.00000000</i>
   <i name="PARAM3">      0.00000000</i>
  </separator>
  <separator name="model GW" >
   <i type="int" name="MODEL_GW">     0</i>
   <i name="MODEL_EPS0">     13.40542284</i>
   <i name="MODEL_ALPHA">      1.00000000</i>
  </separator>
  <separator name="linear response parameters" >
   <i type="logical" name="LEPSILON"> F  </i>
   <i type="logical" name="LRPA"> F  </i>
   <i type="logical" name="LNABLA"> F  </i>
   <i type="logical" name="LVEL"> F  </i>
   <i type="int" name="KINTER">     0</i>
   <i name="CSHIFT">      0.10000000</i>
   <i name="OMEGAMAX">     -1.00000000</i>
   <i name="DEG_THRESHOLD">      0.00200000</i>
   <i name="RTIME">     -0.10000000</i>
   <i name="WPLASMAI">      0.00000000</i>
   <v name="DFIELD">      0.00000000      0.00000000      0.00000000</v>
   <v name="WPLASMA">      0.00000000      0.00000000      0.00000000      0.00000000      0.00000000      0.00000000      0.00000000      0.00000000      0.00000000</v>
  </separator>
  <separator name="orbital magnetization" >
   <i type="logical" name="NUCIND"> F  </i>
   <v name="MAGPOS">      0.00000000      0.00000000      0.00000000</v>
   <i type="logical" name="LNICSALL"> T  </i>
   <i type="logical" name="ORBITALMAG"> F  </i>
   <i type="logical" name="LMAGBLOCH"> F  </i>
   <i type="logical" name="LCHIMAG"> F  </i>
   <i type="logical" name="LGAUGE"> T  </i>
   <i type="int" name="MAGATOM">     0</i>
   <v name="MAGDIPOL">      0.00000000      0.00000000      0.00000000</v>
   <v name="AVECCONST">      0.00000000      0.00000000      0.00000000</v>
  </separator>
  <separator name="response functions" >
   <i type="logical" name="LADDER"> F  </i>
   <i type="logical" name="LRPAFORCE"> F  </i>
   <i type="logical" name="LFXC"> F  </i>
   <i type="logical" name="LHARTREE"> T  </i>
   <i type="int" name="IBSE">     0</i>
   <v type="int" name="KPOINT">    -1     0     0     0</v>
   <i type="logical" name="LTCTE"> F  </i>
   <i type="logical" name="LTETE"> F  </i>
   <i type="logical" name="LTRIPLET"> F  </i>
   <i type="logical" name="LFXCEPS"> F  </i>
   <i type="logical" name="LFXHEG"> F  </i>
   <i type="int" name="NATURALO">     2</i>
   <i type="logical" name="L2ORDER"> F  </i>
   <i type="logical" name="LMP2LT"> F  </i>
   <i type="logical" name="LUSEW"> F  </i>
   <i name="ENCUTGW">     -2.00000000</i>
   <i name="ENCUTGWSOFT">     -2.00000000</i>
   <i name="ENCUTLF">     -1.00000000</i>
   <i type="int" name="LMAXMP2">    -1</i>
   <i name="SCISSOR">      0.00000000</i>
   <i type="int" name="NOMEGA">     0</i>
   <i type="int" name="NOMEGAR">     0</i>
   <i type="int" name="NBANDSGW">    -1</i>
   <i type="int" name="NBANDSO">    -1</i>
   <i type="int" name="NBANDSV">    -1</i>
   <i type="int" name="NELM">     1</i>
   <i type="int" name="NELMHF">     1</i>
   <i type="int" name="DIM">     3</i>
   <i type="int" name="ANTIRES">     0</i>
   <i name="OMEGAMAX">    -30.00000000</i>
   <i name="OMEGAMIN">    -30.00000000</i>
   <i name="OMEGATL">   -200.00000000</i>
   <i type="int" name="OMEGAGRID">   140</i>
   <i name="CSHIFT">     -0.10000000</i>
   <i type="logical" name="SELFENERGY"> F  </i>
   <i type="logical" name="LSPECTRAL"> F  </i>
   <i type="logical" name="LSPECTRALGW"> F  </i>
   <i type="logical" name="LSINGLES"> F  </i>
   <i type="logical" name="LFERMIGW"> F  </i>
   <i type="logical" name="ODDONLYGW"> F  </i>
   <i type="logical" name="EVENONLYGW"> F  </i>
   <i type="int" name="NKREDLFX">     1</i>
   <i type="int" name="NKREDLFY">     1</i>
   <i type="int" name="NKREDLFZ">     1</i>
   <i type="int" name="MAXMEM">  2800</i>
   <i type="int" name="TELESCOPE">     0</i>
   <i type="int" name="TAUPAR">     1</i>
   <i type="int" name="OMEGAPAR">    -1</i>
   <i name="LAMBDA">      1.00000000</i>
  </separator>
  <separator name="External order field" >
   <i name="OFIELD_KAPPA">      0.00000000</i>
   <v name="OFIELD_K">      0.00000000      0.00000000      0.00000000</v>
   <i name="OFIELD_Q6_NEAR">      0.00000000</i>
   <i name="OFIELD_Q6_FAR">      0.00000000</i>
   <i name="OFIELD_A">      0.00000000</i>
  </separator>
 </parameters>
 <atominfo>
  <atoms>       2 </atoms>
  <types>       1 </types>
  <array name="atoms" >
   <dimension dim="1">ion</dimension>
   <field type="string">element</field>
   <field type="int">atomtype</field>
   <set>
    <rc><c>Ge</c><c>   1</c></rc>
    <rc><c>Ge</c><c>   1</c></rc>
   </set>
  </array>
  <array name="atomtypes" >
   <dimension dim="1">type</dimension>
   <field type="int">atomspertype</field>
   <field type="string">element</field>
   <field>mass</field>
   <field>valence</field>
   <field type="string">pseudopotential</field>
   <set>
    <rc><c>   2</c><c>Ge</c><c>     72.61000000</c><c>      4.00000000</c><c>  PAW_PBE Ge 05Jan2001                  </c></rc>
   </set>
  </array>
 </atominfo>
 <structure name="initialpos" >
  <crystal>
   <varray name="basis" >
    <v>       0.00000000       2.81650000       2.81650000 </v>
    <v>       2.81650000       0.00000000       2.81650000 </v>
    <v>       2.81650000       2.81650000       0.00000000 </v>
   </varray>
   <i name="volume">     44.68474278 </i>
   <varray name="rec_basis" >
    <v>      -0.17752530       0.17752530       0.17752530 </v>
    <v>       0.17752530      -0.17752530       0.17752530 </v>
    <v>       0.17752530       0.17752530      -0.17752530 </v>
   </varray>
  </crystal>
  <varray name="positions" >
   <v>       0.00000000       0.00000000       0.00000000 </v>
   <v>       0.25000000       0.25000000       0.25000000 </v>
  </varray>
 </structure>
 <calculation>
  <scstep>
   <time name="total">    1.09    1.09</time>
   <energy>
    <i name="alphaZ">     17.10940282 </i>
    <i name="ewald">   -220.32663596 </i>
    <i name="hartreedc">    -12.42928696 </i>
    <i name="XCdc">    -14.98288157 </i>
    <i name="pawpsdc">    176.29039040 </i>
    <i name="pawaedc">   -147.44509322 </i>
    <i name="eentropy">     -0.00018544 </i>
    <i name="bandstr">    -11.85045128 </i>
    <i name="atom">    209.99145059 </i>
    <i name="e_fr_energy">     -3.64329062 </i>
    <i name="e_wo_entrp">     -3.64310518 </i>
    <i name="e_0_energy">     -3.64322881 </i>
   </energy>
  </scstep>
  <scstep>
   <time name="total">    2.00    2.01</time>
   <energy>
    <i name="e_fr_energy">    -10.46582076 </i>
    <i name="e_wo_entrp">    -10.46586143 </i>
    <i name="e_0_energy">    -10.46583432 </i>
   </energy>
  </scstep>
  <scstep>
   <time name="total">    1.26    1.26</time>
   <energy>
    <i name="e_fr_energy">    -10.49625551 </i>
    <i name="e_wo_entrp">    -10.49629577 </i>
    <i name="e_0_energy">    -10.49626893 </i>
   </energy>
  </scstep>
  <scstep>
   <time name="total">    2.00    2.01</time>
   <energy>
    <i name="e_fr_energy">    -10.49648589 </i>
    <i name="e_wo_entrp">    -10.49652615 </i>
    <i name="e_0_energy">    -10.49649931 </i>
   </energy>
  </scstep>
  <scstep>
   <time name="total">    1.39    1.39</time>
   <energy>
    <i name="e_fr_energy">    -10.49648637 </i>
    <i name="e_wo_entrp">    -10.49652663 </i>
    <i name="e_0_energy">    -10.49649979 </i>
   </energy>
  </scstep>
  <scstep>
   <time name="total">    0.19    0.19</time>
   <energy>
    <i name="e_fr_energy">    -10.25607483 </i>
    <i name="e_wo_entrp">    -10.25611510 </i>
    <i name="e_0_energy">    -10.25608826 </i>
   </energy>
  </scstep>
  <scstep>
   <time name="total">    0.18    0.18</time>
   <energy>
    <i name="e_fr_energy">    -10.27126536 </i>
    <i name="e_wo_entrp">    -10.27130563 </i>
    <i name="e_0_energy">    -10.27127878 </i>
   </energy>
  </scstep>
  <scstep>
   <time name="total">    0.18    0.18</time>
   <energy>
    <i name="e_fr_energy">    -10.28345686 </i>
    <i name="e_wo_entrp">    -10.28349712 </i>
    <i name="e_0_energy">    -10.28347028 </i>
   </energy>
  </scstep>
  <scstep>
   <time name="total">    0.18    0.18</time>
   <energy>
    <i name="e_fr_energy">    -10.28974482 </i>
    <i name="e_wo_entrp">    -10.28978508 </i>
    <i name="e_0_energy">    -10.28975824 </i>
   </energy>
  </scstep>
  <scstep>
   <time name="total">    0.18    0.18</time>
   <energy>
    <i name="e_fr_energy">    -10.29238443 </i>
    <i name="e_wo_entrp">    -10.29242470 </i>
    <i name="e_0_energy">    -10.29239786 </i>
   </energy>
  </scstep>
  <scstep>
   <time name="total">    0.18    0.18</time>
   <energy>
    <i name="e_fr_energy">    -10.29336222 </i>
    <i name="e_wo_entrp">    -10.29340248 </i>
    <i name="e_0_energy">    -10.29337564 </i>
   </energy>
  </scstep>
  <scstep>
   <time name="total">    0.18    0.18</time>
   <energy>
    <i name="e_fr_energy">    -10.29367551 </i>
    <i name="e_wo_entrp">    -10.29371577 </i>
    <i name="e_0_energy">    -10.29368893 </i>
   </energy>
  </scstep>
  <scstep>
   <time name="total">    0.28    0.29</time>
   <energy>
    <i name="alphaZ">     17.10940282 </i>
    <i name="ewald">   -220.32663596 </i>
    <i name="hartreedc">    -15.73721549 </i>
    <i name="XCdc">    -14.32893642 </i>
    <i name="pawpsdc">    509.52455637 </i>
    <i name="pawaedc">   -481.33246821 </i>
    <i name="eentropy">      0.00004026 </i>
    <i name="bandstr">    -15.19394835 </i>
    <i name="atom">    209.99145059 </i>
    <i name="e_fr_energy">    -10.29375439 </i>
    <i name="e_wo_entrp">    -10.29379465 </i>
    <i name="e_0_energy">    -10.29376781 </i>
   </energy>
  </scstep>
  <structure>
   <crystal>
    <varray name="basis" >
     <v>       0.00000000       2.81650000       2.81650000 </v>
     <v>       2.81650000       0.00000000       2.81650000 </v>
     <v>       2.81650000       2.81650000       0.00000000 </v>
    </varray>
    <i name="volume">     44.68474278 </i>
    <varray name="rec_basis" >
     <v>      -0.17752530       0.17752530       0.17752530 </v>
     <v>       0.17752530      -0.17752530       0.17752530 </v>
     <v>       0.17752530       0.17752530      -0.17752530 </v>
    </varray>
   </crystal>
   <varray name="positions" >
    <v>       0.00000000       0.00000000       0.00000000 </v>
    <v>       0.25000000       0.25000000       0.25000000 </v>
   </varray>
  </structure>
  <varray name="forces" >
   <v>       0.00000000       0.00000000       0.00000000 </v>
   <v>      -0.00000000      -0.00000000      -0.00000000 </v>
  </varray>
  <varray name="stress" >
   <v>      25.04457530      -0.00000000      -0.00000000 </v>
   <v>       0.00000000      25.04457530       0.00000000 </v>
   <v>       0.00000000       0.00000000      25.04457530 </v>
  </varray>
  <energy>
   <i name="e_fr_energy">    -10.29375439 </i>
   <i name="e_wo_entrp">    -10.29376781 </i>
   <i name="e_0_energy">      0.00004026 </i>
  </energy>
  <time name="totalsc">    9.62    9.88</time>
  <eigenvalues>
   <array>
    <dimension dim="1">band</dimension>
    <dimension dim="2">kpoint</dimension>
    <dimension dim="3">spin</dimension>
    <field>eigene</field>
    <field>occ</field>
    <set>
     <set comment="spin 1">
      <set comment="kpoint 1">
       <r>   -8.9600    1.0000 </r>
       <r>    3.6901    1.0000 </r>
       <r>    3.6901    1.0000 </r>
       <r>    3.6901    1.0000 </r>
       <r>    4.1096   -0.0000 </r>
       <r>    6.2859    0.0000 </r>
       <r>    6.2859    0.0000 </r>
       <r>    6.2859    0.0000 </r>
       <r>   10.3549    0.0000 </r>
       <r>   13.2010    0.0000 </r>
       <r>   13.2010    0.0000 </r>
       <r>   14.6203    0.0000 </r>
       <r>   14.6203    0.0000 </r>
       <r>   14.6203    0.0000 </r>
       <r>   17.7664    0.0000 </r>
       <r>   28.2641    0.0000 </r>
       <r>   28.2641    0.0000 </r>
       <r>   28.2641    0.0000 </r>
       <r>   28.9323    0.0000 </r>
       <r>   28.9323    0.0000 </r>
       <r>   28.9323    0.0000 </r>
       <r>   29.4778    0.0000 </r>
       <r>   29.4778    0.0000 </r>
       <r>   30.1741    0.0000 </r>
       <r>   30.1741    0.0000 </r>
       <r>   30.1741    0.0000 </r>
       <r>   38.6411    0.0000 </r>
       <r>   39.1132    0.0000 </r>
       <r>   39.1132    0.0000 </r>
       <r>   39.1132    0.0000 </r>
       <r>   41.9492    0.0000 </r>
       <r>   41.9492    0.0000 </r>
       <r>   42.5136    0.0000 </r>
       <r>   42.5136    0.0000 </r>
       <r>   43.4608    0.0000 </r>
       <r>   43.6160    0.0000 </r>
       <r>   43.6160    0.0000 </r>
       <r>   43.6160    0.0000 </r>
       <r>   44.0696    0.0000 </r>
       <r>   44.0696    0.0000 </r>
       <r>   44.0697    0.0000 </r>
       <r>   44.9066    0.0000 </r>
       <r>   44.9066    0.0000 </r>
       <r>   44.9067    0.0000 </r>
       <r>   45.3420    0.0000 </r>
       <r>   45.3420    0.0000 </r>
       <r>   45.3421    0.0000 </r>
       <r>   46.5192    0.0000 </r>
       <r>   46.5192    0.0000 </r>
       <r>   46.5197    0.0000 </r>
       <r>   49.9394    0.0000 </r>
       <r>   51.9103    0.0000 </r>
       <r>   51.9106    0.0000 </r>
       <r>   52.0707    0.0000 </r>
       <r>   52.1775    0.0000 </r>
       <r>   52.1788    0.0000 </r>
      </set>
      <set comment="kpoint 2">
       <r>   -8.6240    1.0000 </r>
       <r>    0.6425    1.0000 </r>
       <r>    3.1585    1.0000 </r>
       <r>    3.1585    1.0000 </r>
       <r>    4.8541   -0.0000 </r>
       <r>    6.9854    0.0000 </r>
       <r>    6.9854    0.0000 </r>
       <r>    7.9860    0.0000 </r>
       <r>   11.7060    0.0000 </r>
       <r>   12.1318    0.0000 </r>
       <r>   12.1318    0.0000 </r>
       <r>   13.8510    0.0000 </r>
       <r>   16.9646    0.0000 </r>
       <r>   16.9646    0.0000 </r>
       <r>   19.9807    0.0000 </r>
       <r>   24.0491    0.0000 </r>
       <r>   24.0491    0.0000 </r>
       <r>   24.3426    0.0000 </r>
       <r>   29.0934    0.0000 </r>
       <r>   29.0934    0.0000 </r>
       <r>   29.5455    0.0000 </r>
       <r>   29.5455    0.0000 </r>
       <r>   30.4615    0.0000 </r>
       <r>   31.7662    0.0000 </r>
       <r>   34.7411    0.0000 </r>
       <r>   34.9482    0.0000 </r>
       <r>   34.9482    0.0000 </r>
       <r>   37.0621    0.0000 </r>
       <r>   37.0621    0.0000 </r>
       <r>   38.1293    0.0000 </r>
       <r>   38.1293    0.0000 </r>
       <r>   39.7697    0.0000 </r>
       <r>   39.7697    0.0000 </r>
       <r>   40.0125    0.0000 </r>
       <r>   41.5313    0.0000 </r>
       <r>   41.5535    0.0000 </r>
       <r>   42.9124    0.0000 </r>
       <r>   42.9124    0.0000 </r>
       <r>   43.7484    0.0000 </r>
       <r>   44.2248    0.0000 </r>
       <r>   44.6392    0.0000 </r>
       <r>   44.6392    0.0000 </r>
       <r>   45.8909    0.0000 </r>
       <r>   47.1123    0.0000 </r>
       <r>   47.1123    0.0000 </r>
       <r>   48.3737    0.0000 </r>
       <r>   48.3739    0.0000 </r>
       <r>   48.4173    0.0000 </r>
       <r>   49.9506    0.0000 </r>
       <r>   49.9507    0.0000 </r>
       <r>   50.7703    0.0000 </r>
       <r>   51.4266    0.0000 </r>
       <r>   52.7250    0.0000 </r>
       <r>   52.7392    0.0000 </r>
       <r>   55.4996    0.0000 </r>
       <r>   55.5351    0.0000 </r>
      </set>
      <set comment="kpoint 3">
       <r>   -7.6891    1.0000 </r>
       <r>   -2.3116    1.0000 </r>
       <r>    2.5000    1.0000 </r>
       <r>    2.5000    1.0000 </r>
       <r>    4.3185   -0.0000 </r>
       <r>    7.5369    0.0000 </r>
       <r>    7.5369    0.0000 </r>
       <r>   10.8483    0.0000 </r>
       <r>   11.7591    0.0000 </r>
       <r>   12.7453    0.0000 </r>
       <r>   12.7453    0.0000 </r>
       <r>   16.2742    0.0000 </r>
       <r>   19.3325    0.0000 </r>
       <r>   19.3325    0.0000 </r>
       <r>   20.5375    0.0000 </r>
       <r>   20.9322    0.0000 </r>
       <r>   20.9322    0.0000 </r>
       <r>   24.2096    0.0000 </r>
       <r>   28.9644    0.0000 </r>
       <r>   29.4157    0.0000 </r>
       <r>   29.4157    0.0000 </r>
       <r>   30.1763    0.0000 </r>
       <r>   30.1763    0.0000 </r>
       <r>   31.1906    0.0000 </r>
       <r>   31.3616    0.0000 </r>
       <r>   31.3616    0.0000 </r>
       <r>   33.2203    0.0000 </r>
       <r>   35.9414    0.0000 </r>
       <r>   35.9414    0.0000 </r>
       <r>   36.5308    0.0000 </r>
       <r>   36.5308    0.0000 </r>
       <r>   36.7338    0.0000 </r>
       <r>   38.5268    0.0000 </r>
       <r>   39.1341    0.0000 </r>
       <r>   41.8431    0.0000 </r>
       <r>   41.8431    0.0000 </r>
       <r>   42.5543    0.0000 </r>
       <r>   42.5543    0.0000 </r>
       <r>   43.0957    0.0000 </r>
       <r>   44.7211    0.0000 </r>
       <r>   44.7211    0.0000 </r>
       <r>   44.8535    0.0000 </r>
       <r>   46.2765    0.0000 </r>
       <r>   49.9725    0.0000 </r>
       <r>   49.9726    0.0000 </r>
       <r>   51.2125    0.0000 </r>
       <r>   51.2133    0.0000 </r>
       <r>   52.5513    0.0000 </r>
       <r>   53.5765    0.0000 </r>
       <r>   53.5768    0.0000 </r>
       <r>   54.1119    0.0000 </r>
       <r>   56.5615    0.0000 </r>
       <r>   57.0217    0.0000 </r>
       <r>   57.0976    0.0000 </r>
       <r>   58.3097    0.0000 </r>
       <r>   58.3305    0.0000 </r>
      </set>
      <set comment="kpoint 4">
       <r>   -6.8567    1.0000 </r>
       <r>   -3.8439    1.0000 </r>
       <r>    2.2565    1.0000 </r>
       <r>    2.2565    1.0000 </r>
       <r>    4.0999   -0.0000 </r>
       <r>    7.5155    0.0000 </r>
       <r>    7.5155    0.0000 </r>
       <r>   10.9596    0.0000 </r>
       <r>   14.4033    0.0000 </r>
       <r>   14.9924    0.0000 </r>
       <r>   15.0014    0.0000 </r>
       <r>   15.0014    0.0000 </r>
       <r>   16.0656    0.0000 </r>
       <r>   16.0656    0.0000 </r>
       <r>   22.6357    0.0000 </r>
       <r>   23.8710    0.0000 </r>
       <r>   25.3378    0.0000 </r>
       <r>   25.3378    0.0000 </r>
       <r>   25.4891    0.0000 </r>
       <r>   25.4891    0.0000 </r>
       <r>   28.8073    0.0000 </r>
       <r>   29.9956    0.0000 </r>
       <r>   30.2763    0.0000 </r>
       <r>   30.2763    0.0000 </r>
       <r>   30.8775    0.0000 </r>
       <r>   30.8775    0.0000 </r>
       <r>   31.6988    0.0000 </r>
       <r>   35.1487    0.0000 </r>
       <r>   35.1487    0.0000 </r>
       <r>   35.3177    0.0000 </r>
       <r>   35.3177    0.0000 </r>
       <r>   36.1430    0.0000 </r>
       <r>   37.2536    0.0000 </r>
       <r>   37.4015    0.0000 </r>
       <r>   42.5118    0.0000 </r>
       <r>   42.5118    0.0000 </r>
       <r>   42.7713    0.0000 </r>
       <r>   43.7363    0.0000 </r>
       <r>   43.7363    0.0000 </r>
       <r>   44.7243    0.0000 </r>
       <r>   48.1067    0.0000 </r>
       <r>   48.1067    0.0000 </r>
       <r>   49.4477    0.0000 </r>
       <r>   49.4478    0.0000 </r>
       <r>   50.2372    0.0000 </r>
       <r>   52.3832    0.0000 </r>
       <r>   52.8791    0.0000 </r>
       <r>   52.8794    0.0000 </r>
       <r>   54.2284    0.0000 </r>
       <r>   54.2321    0.0000 </r>
       <r>   54.7364    0.0000 </r>
       <r>   56.0328    0.0000 </r>
       <r>   56.0372    0.0000 </r>
       <r>   57.7331    0.0000 </r>
       <r>   57.7576    0.0000 </r>
       <r>   58.5066    0.0000 </r>
      </set>
      <set comment="kpoint 5">
       <r>   -8.5088    1.0000 </r>
       <r>    0.6872    1.0000 </r>
       <r>    2.3824    1.0000 </r>
       <r>    2.3824    1.0000 </r>
       <r>    5.3567    0.0000 </r>
       <r>    6.6169    0.0000 </r>
       <r>    8.1560    0.0000 </r>
       <r>    8.1560    0.0000 </r>
       <r>   10.7106    0.0000 </r>
       <r>   12.2957    0.0000 </r>
       <r>   13.6607    0.0000 </r>
       <r>   15.5546    0.0000 </r>
       <r>   15.5546    0.0000 </r>
       <r>   16.3897    0.0000 </r>
       <r>   21.2954    0.0000 </r>
       <r>   23.6135    0.0000 </r>
       <r>   23.6135    0.0000 </r>
       <r>   24.7740    0.0000 </r>
       <r>   25.3366    0.0000 </r>
       <r>   28.6914    0.0000 </r>
       <r>   29.9731    0.0000 </r>
       <r>   29.9731    0.0000 </r>
       <r>   31.3959    0.0000 </r>
       <r>   34.8125    0.0000 </r>
       <r>   34.8125    0.0000 </r>
       <r>   35.0628    0.0000 </r>
       <r>   35.0628    0.0000 </r>
       <r>   35.4079    0.0000 </r>
       <r>   35.4496    0.0000 </r>
       <r>   36.3091    0.0000 </r>
       <r>   37.8189    0.0000 </r>
       <r>   40.4185    0.0000 </r>
       <r>   40.4185    0.0000 </r>
       <r>   40.6246    0.0000 </r>
       <r>   41.3045    0.0000 </r>
       <r>   41.6173    0.0000 </r>
       <r>   42.0570    0.0000 </r>
       <r>   42.0570    0.0000 </r>
       <r>   42.6943    0.0000 </r>
       <r>   45.1976    0.0000 </r>
       <r>   45.6690    0.0000 </r>
       <r>   45.6690    0.0000 </r>
       <r>   46.2974    0.0000 </r>
       <r>   47.2371    0.0000 </r>
       <r>   47.9112    0.0000 </r>
       <r>   47.9112    0.0000 </r>
       <r>   48.6778    0.0000 </r>
       <r>   48.6778    0.0000 </r>
       <r>   48.8566    0.0000 </r>
       <r>   49.8964    0.0000 </r>
       <r>   50.3056    0.0000 </r>
       <r>   51.5465    0.0000 </r>
       <r>   53.0513    0.0000 </r>
       <r>   53.0525    0.0000 </r>
       <r>   56.0165    0.0000 </r>
       <r>   56.8118    0.0000 </r>
      </set>
      <set comment="kpoint 6">
       <r>   -7.7518    1.0000 </r>
       <r>   -1.6014    1.0000 </r>
       <r>    1.4083    1.0000 </r>
       <r>    1.7592    1.0000 </r>
       <r>    5.5767    0.0000 </r>
       <r>    6.9404    0.0000 </r>
       <r>    8.7392    0.0000 </r>
       <r>    9.0403    0.0000 </r>
       <r>   12.3144    0.0000 </r>
       <r>   13.5661    0.0000 </r>
       <r>   14.0144    0.0000 </r>
       <r>   15.8894    0.0000 </r>
       <r>   18.2188    0.0000 </r>
       <r>   19.4375    0.0000 </r>
       <r>   19.7485    0.0000 </r>
       <r>   20.0418    0.0000 </r>
       <r>   23.9657    0.0000 </r>
       <r>   24.8576    0.0000 </r>
       <r>   25.0504    0.0000 </r>
       <r>   26.3760    0.0000 </r>
       <r>   29.0865    0.0000 </r>
       <r>   30.5989    0.0000 </r>
       <r>   30.9376    0.0000 </r>
       <r>   32.1867    0.0000 </r>
       <r>   32.2186    0.0000 </r>
       <r>   33.3669    0.0000 </r>
       <r>   34.8592    0.0000 </r>
       <r>   34.9393    0.0000 </r>
       <r>   35.6451    0.0000 </r>
       <r>   35.8987    0.0000 </r>
       <r>   37.7492    0.0000 </r>
       <r>   37.8782    0.0000 </r>
       <r>   38.9654    0.0000 </r>
       <r>   39.8669    0.0000 </r>
       <r>   39.8822    0.0000 </r>
       <r>   41.2792    0.0000 </r>
       <r>   42.4648    0.0000 </r>
       <r>   43.5776    0.0000 </r>
       <r>   44.6854    0.0000 </r>
       <r>   44.8530    0.0000 </r>
       <r>   45.5043    0.0000 </r>
       <r>   45.8193    0.0000 </r>
       <r>   46.4745    0.0000 </r>
       <r>   47.4704    0.0000 </r>
       <r>   48.2406    0.0000 </r>
       <r>   48.6484    0.0000 </r>
       <r>   51.0587    0.0000 </r>
       <r>   51.5917    0.0000 </r>
       <r>   51.7320    0.0000 </r>
       <r>   52.3599    0.0000 </r>
       <r>   53.9004    0.0000 </r>
       <r>   55.4373    0.0000 </r>
       <r>   56.3475    0.0000 </r>
       <r>   57.5319    0.0000 </r>
       <r>   58.2762    0.0000 </r>
       <r>   58.6588    0.0000 </r>
      </set>
      <set comment="kpoint 7">
       <r>   -6.6849    1.0000 </r>
       <r>   -3.6196    1.0000 </r>
       <r>    0.5808    1.0000 </r>
       <r>    1.6886    1.0000 </r>
       <r>    5.4556    0.0000 </r>
       <r>    7.5914    0.0000 </r>
       <r>    8.7462    0.0000 </r>
       <r>   10.2186    0.0000 </r>
       <r>   13.0618    0.0000 </r>
       <r>   14.8915    0.0000 </r>
       <r>   14.9928    0.0000 </r>
       <r>   15.6664    0.0000 </r>
       <r>   16.6075    0.0000 </r>
       <r>   20.0461    0.0000 </r>
       <r>   21.6642    0.0000 </r>
       <r>   22.5324    0.0000 </r>
       <r>   23.7311    0.0000 </r>
       <r>   24.5428    0.0000 </r>
       <r>   25.4696    0.0000 </r>
       <r>   26.4785    0.0000 </r>
       <r>   26.9737    0.0000 </r>
       <r>   29.3324    0.0000 </r>
       <r>   29.3877    0.0000 </r>
       <r>   30.4257    0.0000 </r>
       <r>   30.5853    0.0000 </r>
       <r>   31.4654    0.0000 </r>
       <r>   32.3814    0.0000 </r>
       <r>   32.9708    0.0000 </r>
       <r>   34.8213    0.0000 </r>
       <r>   36.1510    0.0000 </r>
       <r>   36.3924    0.0000 </r>
       <r>   37.3769    0.0000 </r>
       <r>   38.5155    0.0000 </r>
       <r>   39.4313    0.0000 </r>
       <r>   40.1819    0.0000 </r>
       <r>   42.0766    0.0000 </r>
       <r>   42.9595    0.0000 </r>
       <r>   44.2895    0.0000 </r>
       <r>   46.3400    0.0000 </r>
       <r>   46.9640    0.0000 </r>
       <r>   47.1413    0.0000 </r>
       <r>   47.7597    0.0000 </r>
       <r>   48.4829    0.0000 </r>
       <r>   48.8413    0.0000 </r>
       <r>   49.2007    0.0000 </r>
       <r>   50.8955    0.0000 </r>
       <r>   51.1240    0.0000 </r>
       <r>   52.8919    0.0000 </r>
       <r>   53.1822    0.0000 </r>
       <r>   53.6574    0.0000 </r>
       <r>   55.9748    0.0000 </r>
       <r>   56.1193    0.0000 </r>
       <r>   57.1966    0.0000 </r>
       <r>   57.7525    0.0000 </r>
       <r>   58.8895    0.0000 </r>
       <r>   59.4067    0.0000 </r>
      </set>
      <set comment="kpoint 8">
       <r>   -7.0226    1.0000 </r>
       <r>   -3.0727    1.0000 </r>
       <r>    0.3649    1.0000 </r>
       <r>    2.1814    1.0000 </r>
       <r>    5.6029    0.0000 </r>
       <r>    7.8529    0.0000 </r>
       <r>    8.2086    0.0000 </r>
       <r>   10.5585    0.0000 </r>
       <r>   12.1272    0.0000 </r>
       <r>   12.9550    0.0000 </r>
       <r>   14.8579    0.0000 </r>
       <r>   16.5654    0.0000 </r>
       <r>   18.3138    0.0000 </r>
       <r>   20.0076    0.0000 </r>
       <r>   20.0603    0.0000 </r>
       <r>   21.6399    0.0000 </r>
       <r>   24.2014    0.0000 </r>
       <r>   25.5065    0.0000 </r>
       <r>   26.1856    0.0000 </r>
       <r>   26.4354    0.0000 </r>
       <r>   27.5790    0.0000 </r>
       <r>   27.5945    0.0000 </r>
       <r>   30.3520    0.0000 </r>
       <r>   30.7141    0.0000 </r>
       <r>   31.2513    0.0000 </r>
       <r>   31.4480    0.0000 </r>
       <r>   31.4498    0.0000 </r>
       <r>   35.1003    0.0000 </r>
       <r>   35.7553    0.0000 </r>
       <r>   36.3232    0.0000 </r>
       <r>   36.6890    0.0000 </r>
       <r>   37.9160    0.0000 </r>
       <r>   38.2466    0.0000 </r>
       <r>   39.0990    0.0000 </r>
       <r>   39.9401    0.0000 </r>
       <r>   41.9147    0.0000 </r>
       <r>   42.5681    0.0000 </r>
       <r>   43.1377    0.0000 </r>
       <r>   43.4249    0.0000 </r>
       <r>   45.9159    0.0000 </r>
       <r>   47.6263    0.0000 </r>
       <r>   47.9917    0.0000 </r>
       <r>   49.1376    0.0000 </r>
       <r>   49.8295    0.0000 </r>
       <r>   49.9863    0.0000 </r>
       <r>   50.8579    0.0000 </r>
       <r>   52.0995    0.0000 </r>
       <r>   52.9528    0.0000 </r>
       <r>   53.1996    0.0000 </r>
       <r>   53.8028    0.0000 </r>
       <r>   54.5053    0.0000 </r>
       <r>   55.3930    0.0000 </r>
       <r>   56.1312    0.0000 </r>
       <r>   57.4976    0.0000 </r>
       <r>   57.8979    0.0000 </r>
       <r>   58.3969    0.0000 </r>
      </set>
      <set comment="kpoint 9">
       <r>   -8.0778    1.0000 </r>
       <r>   -0.8912    1.0000 </r>
       <r>    1.1296    1.0000 </r>
       <r>    2.9794    1.0000 </r>
       <r>    5.7935    0.0000 </r>
       <r>    7.3052    0.0000 </r>
       <r>    7.5795    0.0000 </r>
       <r>    8.9348    0.0000 </r>
       <r>   11.1243    0.0000 </r>
       <r>   13.1969    0.0000 </r>
       <r>   13.2323    0.0000 </r>
       <r>   15.5855    0.0000 </r>
       <r>   16.8820    0.0000 </r>
       <r>   19.3592    0.0000 </r>
       <r>   20.1746    0.0000 </r>
       <r>   22.4907    0.0000 </r>
       <r>   23.9607    0.0000 </r>
       <r>   24.5365    0.0000 </r>
       <r>   24.5488    0.0000 </r>
       <r>   26.4716    0.0000 </r>
       <r>   30.2018    0.0000 </r>
       <r>   30.7366    0.0000 </r>
       <r>   31.7385    0.0000 </r>
       <r>   32.7994    0.0000 </r>
       <r>   33.2003    0.0000 </r>
       <r>   33.8148    0.0000 </r>
       <r>   34.7320    0.0000 </r>
       <r>   35.6748    0.0000 </r>
       <r>   36.2024    0.0000 </r>
       <r>   36.5433    0.0000 </r>
       <r>   36.8229    0.0000 </r>
       <r>   38.4852    0.0000 </r>
       <r>   39.4189    0.0000 </r>
       <r>   39.7703    0.0000 </r>
       <r>   39.9948    0.0000 </r>
       <r>   40.6214    0.0000 </r>
       <r>   41.8641    0.0000 </r>
       <r>   42.1109    0.0000 </r>
       <r>   43.7079    0.0000 </r>
       <r>   44.7172    0.0000 </r>
       <r>   45.4176    0.0000 </r>
       <r>   46.0033    0.0000 </r>
       <r>   46.9586    0.0000 </r>
       <r>   48.0996    0.0000 </r>
       <r>   48.1818    0.0000 </r>
       <r>   48.8856    0.0000 </r>
       <r>   49.6939    0.0000 </r>
       <r>   49.7800    0.0000 </r>
       <r>   52.3725    0.0000 </r>
       <r>   53.2505    0.0000 </r>
       <r>   54.0698    0.0000 </r>
       <r>   54.1827    0.0000 </r>
       <r>   55.7760    0.0000 </r>
       <r>   56.4735    0.0000 </r>
       <r>   56.8811    0.0000 </r>
       <r>   58.0452    0.0000 </r>
      </set>
      <set comment="kpoint 10">
       <r>   -7.1801    1.0000 </r>
       <r>   -2.3575    1.0000 </r>
       <r>    1.0461    1.0000 </r>
       <r>    1.0461    1.0000 </r>
       <r>    4.4655   -0.0000 </r>
       <r>    5.7940    0.0000 </r>
       <r>   11.0795    0.0000 </r>
       <r>   11.0795    0.0000 </r>
       <r>   12.3502    0.0000 </r>
       <r>   15.0433    0.0000 </r>
       <r>   15.7106    0.0000 </r>
       <r>   18.3162    0.0000 </r>
       <r>   18.3162    0.0000 </r>
       <r>   18.8222    0.0000 </r>
       <r>   19.2356    0.0000 </r>
       <r>   19.2356    0.0000 </r>
       <r>   20.6045    0.0000 </r>
       <r>   21.8827    0.0000 </r>
       <r>   27.4617    0.0000 </r>
       <r>   28.2694    0.0000 </r>
       <r>   28.6185    0.0000 </r>
       <r>   28.6185    0.0000 </r>
       <r>   29.5209    0.0000 </r>
       <r>   30.3848    0.0000 </r>
       <r>   31.1973    0.0000 </r>
       <r>   31.1973    0.0000 </r>
       <r>   32.6504    0.0000 </r>
       <r>   36.4472    0.0000 </r>
       <r>   37.3457    0.0000 </r>
       <r>   37.3457    0.0000 </r>
       <r>   38.7283    0.0000 </r>
       <r>   39.3081    0.0000 </r>
       <r>   40.5325    0.0000 </r>
       <r>   40.5325    0.0000 </r>
       <r>   40.7624    0.0000 </r>
       <r>   40.8433    0.0000 </r>
       <r>   40.8433    0.0000 </r>
       <r>   42.8830    0.0000 </r>
       <r>   43.5897    0.0000 </r>
       <r>   43.6918    0.0000 </r>
       <r>   44.4212    0.0000 </r>
       <r>   44.4212    0.0000 </r>
       <r>   46.1807    0.0000 </r>
       <r>   49.0045    0.0000 </r>
       <r>   50.3957    0.0000 </r>
       <r>   50.3958    0.0000 </r>
       <r>   51.5490    0.0000 </r>
       <r>   52.3337    0.0000 </r>
       <r>   53.1439    0.0000 </r>
       <r>   53.1450    0.0000 </r>
       <r>   53.6858    0.0000 </r>
       <r>   54.1822    0.0000 </r>
       <r>   57.7731    0.0000 </r>
       <r>   58.4159    0.0000 </r>
       <r>   58.4438    0.0000 </r>
       <r>   59.9372    0.0000 </r>
      </set>
      <set comment="kpoint 11">
       <r>   -6.1037    1.0000 </r>
       <r>   -3.8654    1.0000 </r>
       <r>   -0.0840    1.0000 </r>
       <r>    0.8854    1.0000 </r>
       <r>    4.8638   -0.0000 </r>
       <r>    6.4806    0.0000 </r>
       <r>   10.8375    0.0000 </r>
       <r>   11.3853    0.0000 </r>
       <r>   14.2062    0.0000 </r>
       <r>   15.3801    0.0000 </r>
       <r>   15.8095    0.0000 </r>
       <r>   17.2872    0.0000 </r>
       <r>   17.7707    0.0000 </r>
       <r>   19.8238    0.0000 </r>
       <r>   20.7283    0.0000 </r>
       <r>   21.4264    0.0000 </r>
       <r>   22.0866    0.0000 </r>
       <r>   23.0577    0.0000 </r>
       <r>   23.6595    0.0000 </r>
       <r>   26.1352    0.0000 </r>
       <r>   26.3101    0.0000 </r>
       <r>   26.6328    0.0000 </r>
       <r>   28.5808    0.0000 </r>
       <r>   30.0922    0.0000 </r>
       <r>   31.8497    0.0000 </r>
       <r>   31.8552    0.0000 </r>
       <r>   33.9696    0.0000 </r>
       <r>   34.0344    0.0000 </r>
       <r>   35.5592    0.0000 </r>
       <r>   36.3934    0.0000 </r>
       <r>   37.5134    0.0000 </r>
       <r>   38.3238    0.0000 </r>
       <r>   38.8691    0.0000 </r>
       <r>   39.2773    0.0000 </r>
       <r>   41.7223    0.0000 </r>
       <r>   41.8115    0.0000 </r>
       <r>   42.8019    0.0000 </r>
       <r>   43.7618    0.0000 </r>
       <r>   44.7948    0.0000 </r>
       <r>   45.0221    0.0000 </r>
       <r>   45.7363    0.0000 </r>
       <r>   47.9765    0.0000 </r>
       <r>   48.4002    0.0000 </r>
       <r>   49.1160    0.0000 </r>
       <r>   49.8520    0.0000 </r>
       <r>   50.7021    0.0000 </r>
       <r>   51.3901    0.0000 </r>
       <r>   53.0848    0.0000 </r>
       <r>   54.3816    0.0000 </r>
       <r>   54.6332    0.0000 </r>
       <r>   55.8778    0.0000 </r>
       <r>   56.4796    0.0000 </r>
       <r>   57.0302    0.0000 </r>
       <r>   57.2105    0.0000 </r>
       <r>   58.2050    0.0000 </r>
       <r>   59.1144    0.0000 </r>
      </set>
      <set comment="kpoint 12">
       <r>   -5.9635    1.0000 </r>
       <r>   -4.0176    1.0000 </r>
       <r>   -0.8012    1.0000 </r>
       <r>    1.3411    1.0000 </r>
       <r>    5.2652    0.0000 </r>
       <r>    9.5707    0.0000 </r>
       <r>   10.2018    0.0000 </r>
       <r>   10.2123    0.0000 </r>
       <r>   11.0120    0.0000 </r>
       <r>   12.7038    0.0000 </r>
       <r>   17.4080    0.0000 </r>
       <r>   17.7215    0.0000 </r>
       <r>   19.3836    0.0000 </r>
       <r>   20.6550    0.0000 </r>
       <r>   21.0774    0.0000 </r>
       <r>   22.1110    0.0000 </r>
       <r>   22.2369    0.0000 </r>
       <r>   24.1224    0.0000 </r>
       <r>   25.4803    0.0000 </r>
       <r>   25.8259    0.0000 </r>
       <r>   25.9188    0.0000 </r>
       <r>   26.2455    0.0000 </r>
       <r>   28.9055    0.0000 </r>
       <r>   29.6963    0.0000 </r>
       <r>   29.7951    0.0000 </r>
       <r>   31.7476    0.0000 </r>
       <r>   31.7924    0.0000 </r>
       <r>   32.2165    0.0000 </r>
       <r>   36.7954    0.0000 </r>
       <r>   37.2900    0.0000 </r>
       <r>   37.3421    0.0000 </r>
       <r>   37.6677    0.0000 </r>
       <r>   37.9626    0.0000 </r>
       <r>   38.4615    0.0000 </r>
       <r>   41.4299    0.0000 </r>
       <r>   41.8018    0.0000 </r>
       <r>   43.0307    0.0000 </r>
       <r>   45.0527    0.0000 </r>
       <r>   45.4893    0.0000 </r>
       <r>   47.3566    0.0000 </r>
       <r>   47.8344    0.0000 </r>
       <r>   48.5986    0.0000 </r>
       <r>   49.1127    0.0000 </r>
       <r>   50.4316    0.0000 </r>
       <r>   50.4336    0.0000 </r>
       <r>   51.0845    0.0000 </r>
       <r>   51.2835    0.0000 </r>
       <r>   52.5701    0.0000 </r>
       <r>   53.1779    0.0000 </r>
       <r>   53.7165    0.0000 </r>
       <r>   54.7899    0.0000 </r>
       <r>   55.2069    0.0000 </r>
       <r>   56.0519    0.0000 </r>
       <r>   56.0734    0.0000 </r>
       <r>   57.7083    0.0000 </r>
       <r>   58.2936    0.0000 </r>
      </set>
      <set comment="kpoint 13">
       <r>   -5.0657    1.0000 </r>
       <r>   -5.0657    1.0000 </r>
       <r>    0.5698    1.0000 </r>
       <r>    0.5698    1.0000 </r>
       <r>    4.5697   -0.0000 </r>
       <r>    4.5697   -0.0000 </r>
       <r>   13.2703    0.0000 </r>
       <r>   13.2703    0.0000 </r>
       <r>   15.4806    0.0000 </r>
       <r>   15.4806    0.0000 </r>
       <r>   16.4583    0.0000 </r>
       <r>   16.4583    0.0000 </r>
       <r>   17.3561    0.0000 </r>
       <r>   17.3561    0.0000 </r>
       <r>   22.8740    0.0000 </r>
       <r>   22.8740    0.0000 </r>
       <r>   22.8805    0.0000 </r>
       <r>   22.8805    0.0000 </r>
       <r>   22.8893    0.0000 </r>
       <r>   22.8893    0.0000 </r>
       <r>   23.5855    0.0000 </r>
       <r>   23.5855    0.0000 </r>
       <r>   30.8382    0.0000 </r>
       <r>   30.8382    0.0000 </r>
       <r>   32.2129    0.0000 </r>
       <r>   32.2129    0.0000 </r>
       <r>   35.7052    0.0000 </r>
       <r>   35.7052    0.0000 </r>
       <r>   36.4524    0.0000 </r>
       <r>   36.4524    0.0000 </r>
       <r>   38.5584    0.0000 </r>
       <r>   38.5584    0.0000 </r>
       <r>   38.7819    0.0000 </r>
       <r>   38.7819    0.0000 </r>
       <r>   40.0767    0.0000 </r>
       <r>   40.0767    0.0000 </r>
       <r>   42.5072    0.0000 </r>
       <r>   42.5072    0.0000 </r>
       <r>   42.9152    0.0000 </r>
       <r>   42.9152    0.0000 </r>
       <r>   46.9926    0.0000 </r>
       <r>   46.9926    0.0000 </r>
       <r>   49.8375    0.0000 </r>
       <r>   49.8378    0.0000 </r>
       <r>   50.3190    0.0000 </r>
       <r>   50.3191    0.0000 </r>
       <r>   55.0655    0.0000 </r>
       <r>   55.0741    0.0000 </r>
       <r>   55.9036    0.0000 </r>
       <r>   55.9618    0.0000 </r>
       <r>   56.9572    0.0000 </r>
       <r>   57.0049    0.0000 </r>
       <r>   57.1520    0.0000 </r>
       <r>   57.3766    0.0000 </r>
       <r>   57.9537    0.0000 </r>
       <r>   58.1132    0.0000 </r>
      </set>
      <set comment="kpoint 14">
       <r>   -6.8361    1.0000 </r>
       <r>   -2.9372    1.0000 </r>
       <r>   -0.0315    1.0000 </r>
       <r>    1.2188    1.0000 </r>
       <r>    6.5860    0.0000 </r>
       <r>    7.0339    0.0000 </r>
       <r>    8.1528    0.0000 </r>
       <r>   10.8544    0.0000 </r>
       <r>   13.0784    0.0000 </r>
       <r>   13.7289    0.0000 </r>
       <r>   16.2260    0.0000 </r>
       <r>   16.9380    0.0000 </r>
       <r>   17.5415    0.0000 </r>
       <r>   19.5870    0.0000 </r>
       <r>   20.0077    0.0000 </r>
       <r>   21.7209    0.0000 </r>
       <r>   23.2670    0.0000 </r>
       <r>   25.0527    0.0000 </r>
       <r>   25.0691    0.0000 </r>
       <r>   25.9491    0.0000 </r>
       <r>   26.9351    0.0000 </r>
       <r>   27.9181    0.0000 </r>
       <r>   29.0641    0.0000 </r>
       <r>   30.6176    0.0000 </r>
       <r>   30.9215    0.0000 </r>
       <r>   32.4291    0.0000 </r>
       <r>   33.5211    0.0000 </r>
       <r>   34.2694    0.0000 </r>
       <r>   34.8168    0.0000 </r>
       <r>   35.8605    0.0000 </r>
       <r>   36.3361    0.0000 </r>
       <r>   38.3549    0.0000 </r>
       <r>   39.4232    0.0000 </r>
       <r>   40.1298    0.0000 </r>
       <r>   41.6148    0.0000 </r>
       <r>   42.0912    0.0000 </r>
       <r>   43.4455    0.0000 </r>
       <r>   44.3335    0.0000 </r>
       <r>   44.5374    0.0000 </r>
       <r>   44.6045    0.0000 </r>
       <r>   46.3022    0.0000 </r>
       <r>   46.4169    0.0000 </r>
       <r>   47.0183    0.0000 </r>
       <r>   49.2109    0.0000 </r>
       <r>   49.5251    0.0000 </r>
       <r>   50.6924    0.0000 </r>
       <r>   51.3497    0.0000 </r>
       <r>   52.4787    0.0000 </r>
       <r>   53.3471    0.0000 </r>
       <r>   55.3116    0.0000 </r>
       <r>   55.3604    0.0000 </r>
       <r>   55.6865    0.0000 </r>
       <r>   57.2028    0.0000 </r>
       <r>   57.2286    0.0000 </r>
       <r>   57.7845    0.0000 </r>
       <r>   59.3739    0.0000 </r>
      </set>
      <set comment="kpoint 15">
       <r>   -5.9579    1.0000 </r>
       <r>   -4.0527    1.0000 </r>
       <r>   -0.4824    1.0000 </r>
       <r>    0.7770    1.0000 </r>
       <r>    6.8555    0.0000 </r>
       <r>    7.4143    0.0000 </r>
       <r>    9.8792    0.0000 </r>
       <r>    9.8894    0.0000 </r>
       <r>   11.8610    0.0000 </r>
       <r>   15.5765    0.0000 </r>
       <r>   15.6251    0.0000 </r>
       <r>   16.4031    0.0000 </r>
       <r>   19.9545    0.0000 </r>
       <r>   20.5149    0.0000 </r>
       <r>   21.2211    0.0000 </r>
       <r>   21.9632    0.0000 </r>
       <r>   22.3126    0.0000 </r>
       <r>   24.6206    0.0000 </r>
       <r>   25.0961    0.0000 </r>
       <r>   25.6171    0.0000 </r>
       <r>   25.9311    0.0000 </r>
       <r>   27.9088    0.0000 </r>
       <r>   28.2568    0.0000 </r>
       <r>   28.8498    0.0000 </r>
       <r>   30.2086    0.0000 </r>
       <r>   31.6991    0.0000 </r>
       <r>   32.9277    0.0000 </r>
       <r>   33.3402    0.0000 </r>
       <r>   33.5196    0.0000 </r>
       <r>   34.4456    0.0000 </r>
       <r>   36.4486    0.0000 </r>
       <r>   38.4458    0.0000 </r>
       <r>   40.7568    0.0000 </r>
       <r>   41.4991    0.0000 </r>
       <r>   41.9419    0.0000 </r>
       <r>   42.8066    0.0000 </r>
       <r>   43.3265    0.0000 </r>
       <r>   43.8853    0.0000 </r>
       <r>   45.0581    0.0000 </r>
       <r>   45.5175    0.0000 </r>
       <r>   46.0240    0.0000 </r>
       <r>   47.8805    0.0000 </r>
       <r>   48.9379    0.0000 </r>
       <r>   49.5655    0.0000 </r>
       <r>   50.6767    0.0000 </r>
       <r>   51.6711    0.0000 </r>
       <r>   52.3532    0.0000 </r>
       <r>   52.4208    0.0000 </r>
       <r>   54.3538    0.0000 </r>
       <r>   54.6419    0.0000 </r>
       <r>   55.0185    0.0000 </r>
       <r>   55.6450    0.0000 </r>
       <r>   56.1698    0.0000 </r>
       <r>   56.5865    0.0000 </r>
       <r>   57.2281    0.0000 </r>
       <r>   58.2136    0.0000 </r>
      </set>
      <set comment="kpoint 16">
       <r>   -4.9879    1.0000 </r>
       <r>   -4.9879    1.0000 </r>
       <r>   -0.0803    1.0000 </r>
       <r>   -0.0803    1.0000 </r>
       <r>    6.5118    0.0000 </r>
       <r>    6.5118    0.0000 </r>
       <r>   10.3758    0.0000 </r>
       <r>   10.3758    0.0000 </r>
       <r>   14.7861    0.0000 </r>
       <r>   14.7861    0.0000 </r>
       <r>   16.6909    0.0000 </r>
       <r>   16.6909    0.0000 </r>
       <r>   20.3864    0.0000 </r>
       <r>   20.3864    0.0000 </r>
       <r>   20.9264    0.0000 </r>
       <r>   20.9264    0.0000 </r>
       <r>   21.9451    0.0000 </r>
       <r>   21.9451    0.0000 </r>
       <r>   25.6775    0.0000 </r>
       <r>   25.6775    0.0000 </r>
       <r>   26.7830    0.0000 </r>
       <r>   26.7830    0.0000 </r>
       <r>   27.2642    0.0000 </r>
       <r>   27.2642    0.0000 </r>
       <r>   31.4214    0.0000 </r>
       <r>   31.4214    0.0000 </r>
       <r>   33.0387    0.0000 </r>
       <r>   33.0387    0.0000 </r>
       <r>   35.8527    0.0000 </r>
       <r>   35.8527    0.0000 </r>
       <r>   38.7096    0.0000 </r>
       <r>   38.7096    0.0000 </r>
       <r>   38.8191    0.0000 </r>
       <r>   38.8191    0.0000 </r>
       <r>   42.2113    0.0000 </r>
       <r>   42.2113    0.0000 </r>
       <r>   44.2737    0.0000 </r>
       <r>   44.2737    0.0000 </r>
       <r>   44.3478    0.0000 </r>
       <r>   44.3478    0.0000 </r>
       <r>   48.2573    0.0000 </r>
       <r>   48.2573    0.0000 </r>
       <r>   49.5243    0.0000 </r>
       <r>   49.5243    0.0000 </r>
       <r>   50.7427    0.0000 </r>
       <r>   50.7428    0.0000 </r>
       <r>   51.0949    0.0000 </r>
       <r>   51.0950    0.0000 </r>
       <r>   53.8086    0.0000 </r>
       <r>   53.8090    0.0000 </r>
       <r>   56.4850    0.0000 </r>
       <r>   56.4922    0.0000 </r>
       <r>   57.5942    0.0000 </r>
       <r>   57.6055    0.0000 </r>
       <r>   58.2719    0.0000 </r>
       <r>   58.3229    0.0000 </r>
      </set>
     </set>
    </set>
   </array>
  </eigenvalues>
  <separator name="orbital magnetization" >
   <v name="MAGDIPOLOUT">      0.00000000      0.00000000      0.00000000</v>
  </separator>
  <dos>
   <i name="efermi">      3.73223640 </i>
   <total>
    <array>
     <dimension dim="1">gridpoints</dimension>
     <dimension dim="2">spin</dimension>
     <field>energy</field>
     <field>total</field>
     <field>integrated</field>
     <set>
      <set comment="spin 1">
       <r>   -12.4049     0.0000     0.0000 </r>
       <r>   -12.1523     0.0000     0.0000 </r>
       <r>   -11.8996     0.0000     0.0000 </r>
       <r>   -11.6470     0.0000     0.0000 </r>
       <r>   -11.3944     0.0000     0.0000 </r>
       <r>   -11.1418     0.0000     0.0000 </r>
       <r>   -10.8892     0.0000     0.0000 </r>
       <r>   -10.6365     0.0000     0.0000 </r>
       <r>   -10.3839     0.0000     0.0000 </r>
       <r>   -10.1313     0.0000     0.0000 </r>
       <r>    -9.8787     0.0000     0.0000 </r>
       <r>    -9.6260     0.0000     0.0000 </r>
       <r>    -9.3734    -0.0000    -0.0000 </r>
       <r>    -9.1208    -0.0000    -0.0000 </r>
       <r>    -8.8682     0.0371     0.0094 </r>
       <r>    -8.6155     0.1865     0.0565 </r>
       <r>    -8.3629     0.3262     0.1389 </r>
       <r>    -8.1103     0.0257     0.1454 </r>
       <r>    -7.8577     0.4094     0.2488 </r>
       <r>    -7.6051     1.1834     0.5478 </r>
       <r>    -7.3524    -0.0058     0.5463 </r>
       <r>    -7.0998     0.2024     0.5974 </r>
       <r>    -6.8472     1.2727     0.9189 </r>
       <r>    -6.5946     1.5429     1.3087 </r>
       <r>    -6.3419    -0.0125     1.3056 </r>
       <r>    -6.0893     0.6439     1.4682 </r>
       <r>    -5.8367     1.5571     1.8616 </r>
       <r>    -5.5841    -0.0019     1.8611 </r>
       <r>    -5.3314    -0.0000     1.8611 </r>
       <r>    -5.0788     0.0508     1.8739 </r>
       <r>    -4.8262     1.0488     2.1389 </r>
       <r>    -4.5736    -0.0000     2.1389 </r>
       <r>    -4.3210    -0.0000     2.1389 </r>
       <r>    -4.0683     0.2070     2.1912 </r>
       <r>    -3.8157     2.1462     2.7334 </r>
       <r>    -3.5631     0.9020     2.9612 </r>
       <r>    -3.3105    -0.0298     2.9537 </r>
       <r>    -3.0578     0.6489     3.1176 </r>
       <r>    -2.8052     1.1109     3.3983 </r>
       <r>    -2.5526    -0.0005     3.3981 </r>
       <r>    -2.3000     0.4300     3.5068 </r>
       <r>    -2.0473     0.0832     3.5278 </r>
       <r>    -1.7947    -0.0000     3.5278 </r>
       <r>    -1.5421     0.9106     3.7578 </r>
       <r>    -1.2895    -0.0310     3.7500 </r>
       <r>    -1.0368    -0.0001     3.7500 </r>
       <r>    -0.7842     0.7808     3.9472 </r>
       <r>    -0.5316     0.0784     3.9670 </r>
       <r>    -0.2790     0.9002     4.1944 </r>
       <r>    -0.0264     2.3337     4.7840 </r>
       <r>     0.2263     0.3050     4.8610 </r>
       <r>     0.4789     0.8733     5.0816 </r>
       <r>     0.7315     1.6143     5.4894 </r>
       <r>     0.9841     1.7565     5.9332 </r>
       <r>     1.2368     1.5765     6.3314 </r>
       <r>     1.4894     1.5297     6.7179 </r>
       <r>     1.7420     1.0870     6.9925 </r>
       <r>     1.9946     0.6529     7.1574 </r>
       <r>     2.2473     1.0114     7.4129 </r>
       <r>     2.4999     0.8945     7.6389 </r>
       <r>     2.7525     0.2932     7.7130 </r>
       <r>     3.0051     0.3859     7.8104 </r>
       <r>     3.2577     0.6453     7.9735 </r>
       <r>     3.5104    -0.0049     7.9722 </r>
       <r>     3.7630     0.1132     8.0008 </r>
       <r>     4.0156    -0.0065     7.9992 </r>
       <r>     4.2682     0.1790     8.0444 </r>
       <r>     4.5209     0.5230     8.1765 </r>
       <r>     4.7735     0.1986     8.2267 </r>
       <r>     5.0261     1.1919     8.5278 </r>
       <r>     5.2787     0.3113     8.6064 </r>
       <r>     5.5314     1.2139     8.9131 </r>
       <r>     5.7840     1.9971     9.4176 </r>
       <r>     6.0366     0.4361     9.5278 </r>
       <r>     6.2892     0.0611     9.5432 </r>
       <r>     6.5418     1.7556     9.9867 </r>
       <r>     6.7945     1.1208    10.2699 </r>
       <r>     7.0471     3.0313    11.0356 </r>
       <r>     7.2997     0.4025    11.1373 </r>
       <r>     7.5523     1.9266    11.6240 </r>
       <r>     7.8050     1.3972    11.9770 </r>
       <r>     8.0576     1.1862    12.2766 </r>
       <r>     8.3102     2.2100    12.8349 </r>
       <r>     8.5628    -0.0063    12.8333 </r>
       <r>     8.8155     1.8102    13.2906 </r>
       <r>     9.0681     1.1797    13.5887 </r>
       <r>     9.3207     0.0889    13.6111 </r>
       <r>     9.5733     0.2393    13.6716 </r>
       <r>     9.8260     0.1426    13.7076 </r>
       <r>    10.0786     1.8162    14.1664 </r>
       <r>    10.3312     1.7610    14.6113 </r>
       <r>    10.5838     1.6841    15.0367 </r>
       <r>    10.8364     1.0348    15.2981 </r>
       <r>    11.0891     2.2535    15.8674 </r>
       <r>    11.3417     0.5562    16.0079 </r>
       <r>    11.5943     0.8840    16.2312 </r>
       <r>    11.8469     0.8318    16.4414 </r>
       <r>    12.0996     0.7609    16.6336 </r>
       <r>    12.3522     2.5452    17.2766 </r>
       <r>    12.6048     0.1109    17.3046 </r>
       <r>    12.8574     1.0240    17.5633 </r>
       <r>    13.1101     2.5969    18.2193 </r>
       <r>    13.3627     1.2243    18.5286 </r>
       <r>    13.6153     0.8916    18.7538 </r>
       <r>    13.8679     1.3101    19.0847 </r>
       <r>    14.1205     0.9362    19.3212 </r>
       <r>    14.3732     0.9025    19.5492 </r>
       <r>    14.6258     0.2002    19.5998 </r>
       <r>    14.8784     1.9027    20.0805 </r>
       <r>    15.1310     2.3246    20.6677 </r>
       <r>    15.3837     0.4870    20.7907 </r>
       <r>    15.6363     3.0854    21.5702 </r>
       <r>    15.8889     2.5944    22.2256 </r>
       <r>    16.1415     0.7108    22.4051 </r>
       <r>    16.3942     1.6094    22.8117 </r>
       <r>    16.6468     2.6509    23.4814 </r>
       <r>    16.8994     1.2158    23.7885 </r>
       <r>    17.1520     1.5697    24.1851 </r>
       <r>    17.4046     1.3015    24.5139 </r>
       <r>    17.6573     1.1019    24.7923 </r>
       <r>    17.9099     1.3724    25.1390 </r>
       <r>    18.1625    -0.0300    25.1314 </r>
       <r>    18.4151     2.2391    25.6970 </r>
       <r>    18.6678    -0.0102    25.6944 </r>
       <r>    18.9204     0.2219    25.7505 </r>
       <r>    19.1730    -0.0175    25.7461 </r>
       <r>    19.4256     2.2117    26.3048 </r>
       <r>    19.6783     1.4530    26.6719 </r>
       <r>    19.9309     1.8487    27.1389 </r>
       <r>    20.1835     5.7850    28.6003 </r>
       <r>    20.4361     1.0306    28.8607 </r>
       <r>    20.6887     1.8276    29.3224 </r>
       <r>    20.9414     1.9204    29.8075 </r>
       <r>    21.1940     0.9660    30.0515 </r>
       <r>    21.4466     1.7214    30.4864 </r>
       <r>    21.6992     2.0673    31.0086 </r>
       <r>    21.9519     1.7771    31.4576 </r>
       <r>    22.2045     2.2863    32.0351 </r>
       <r>    22.4571     1.2886    32.3607 </r>
       <r>    22.7097     1.4721    32.7325 </r>
       <r>    22.9624     0.6608    32.8995 </r>
       <r>    23.2150     0.8491    33.1140 </r>
       <r>    23.4676     0.9045    33.3425 </r>
       <r>    23.7202     1.8553    33.8112 </r>
       <r>    23.9729     1.5487    34.2024 </r>
       <r>    24.2255     2.4872    34.8307 </r>
       <r>    24.4781     0.4271    34.9386 </r>
       <r>    24.7307     2.7002    35.6208 </r>
       <r>    24.9833     1.0225    35.8791 </r>
       <r>    25.2360     3.5907    36.7862 </r>
       <r>    25.4886     1.8331    37.2492 </r>
       <r>    25.7412     2.9590    37.9967 </r>
       <r>    25.9938     2.6676    38.6706 </r>
       <r>    26.2465     1.9370    39.1599 </r>
       <r>    26.4991     3.9946    40.1691 </r>
       <r>    26.7517     1.1153    40.4508 </r>
       <r>    27.0043     2.5400    41.0925 </r>
       <r>    27.2570     0.3709    41.1862 </r>
       <r>    27.5096     0.7255    41.3695 </r>
       <r>    27.7622     1.7994    41.8240 </r>
       <r>    28.0148     1.7728    42.2719 </r>
       <r>    28.2674     0.7446    42.4600 </r>
       <r>    28.5201     0.4165    42.5652 </r>
       <r>    28.7727     1.5627    42.9600 </r>
       <r>    29.0253     1.8576    43.4293 </r>
       <r>    29.2779     2.3373    44.0197 </r>
       <r>    29.5306     2.7523    44.7150 </r>
       <r>    29.7832     1.0861    44.9894 </r>
       <r>    30.0358     0.8694    45.2090 </r>
       <r>    30.2884     3.1131    45.9954 </r>
       <r>    30.5411     2.3120    46.5795 </r>
       <r>    30.7937     4.0373    47.5994 </r>
       <r>    31.0463     2.2503    48.1679 </r>
       <r>    31.2989     1.6052    48.5734 </r>
       <r>    31.5515     4.3555    49.6737 </r>
       <r>    31.8042     2.4710    50.2979 </r>
       <r>    32.0568     1.8989    50.7776 </r>
       <r>    32.3094     2.4125    51.3871 </r>
       <r>    32.5620     1.7636    51.8326 </r>
       <r>    32.8147     0.5477    51.9709 </r>
       <r>    33.0673     2.6806    52.6481 </r>
       <r>    33.3199     0.9582    52.8902 </r>
       <r>    33.5725     3.4180    53.7537 </r>
       <r>    33.8252     0.2442    53.8153 </r>
       <r>    34.0778     1.9125    54.2985 </r>
       <r>    34.3304     0.8999    54.5258 </r>
       <r>    34.5830     0.8511    54.7408 </r>
       <r>    34.8356     2.5775    55.3919 </r>
       <r>    35.0883     3.3420    56.2362 </r>
       <r>    35.3409     1.2118    56.5423 </r>
       <r>    35.5935     1.2971    56.8700 </r>
       <r>    35.8461     3.0525    57.6411 </r>
       <r>    36.0988     2.6370    58.3073 </r>
       <r>    36.3514     3.1589    59.1053 </r>
       <r>    36.6040     4.4375    60.2263 </r>
       <r>    36.8566     2.0306    60.7393 </r>
       <r>    37.1093     0.6028    60.8916 </r>
       <r>    37.3619     1.5068    61.2722 </r>
       <r>    37.6145     1.8473    61.7389 </r>
       <r>    37.8671     1.8083    62.1957 </r>
       <r>    38.1198     2.1374    62.7356 </r>
       <r>    38.3724     2.8160    63.4470 </r>
       <r>    38.6250     3.3665    64.2975 </r>
       <r>    38.8776     2.8141    65.0084 </r>
       <r>    39.1302     2.2073    65.5660 </r>
       <r>    39.3829     1.3654    65.9109 </r>
       <r>    39.6355     2.1847    66.4628 </r>
       <r>    39.8881     2.2554    67.0326 </r>
       <r>    40.1407     2.9732    67.7837 </r>
       <r>    40.3934     1.2059    68.0883 </r>
       <r>    40.6460     1.3835    68.4379 </r>
       <r>    40.8986     1.6536    68.8556 </r>
       <r>    41.1512    -0.0156    68.8517 </r>
       <r>    41.4039     1.1456    69.1411 </r>
       <r>    41.6565     2.9276    69.8806 </r>
       <r>    41.9091     3.7006    70.8155 </r>
       <r>    42.1617     4.0660    71.8426 </r>
       <r>    42.4143     0.8136    72.0482 </r>
       <r>    42.6670     2.9927    72.8042 </r>
       <r>    42.9196     2.8102    73.5141 </r>
       <r>    43.1722     2.7728    74.2146 </r>
       <r>    43.4248     1.5176    74.5980 </r>
       <r>    43.6775     2.4685    75.2216 </r>
       <r>    43.9301     2.9441    75.9653 </r>
       <r>    44.1827     0.0844    75.9867 </r>
       <r>    44.4353     4.1632    77.0384 </r>
       <r>    44.6880     3.0289    77.8035 </r>
       <r>    44.9406     3.6284    78.7201 </r>
       <r>    45.1932     2.3015    79.3015 </r>
       <r>    45.4458     0.5739    79.4465 </r>
       <r>    45.6984     2.7211    80.1339 </r>
       <r>    45.9511     2.8899    80.8640 </r>
       <r>    46.2037     1.5483    81.2551 </r>
       <r>    46.4563     3.3807    82.1092 </r>
       <r>    46.7089     0.8141    82.3148 </r>
       <r>    46.9616     0.6308    82.4742 </r>
       <r>    47.2142     3.3182    83.3124 </r>
       <r>    47.4668     0.9835    83.5609 </r>
       <r>    47.7194     1.3887    83.9117 </r>
       <r>    47.9721     3.1941    84.7186 </r>
       <r>    48.2247     2.6291    85.3828 </r>
       <r>    48.4773     3.6423    86.3029 </r>
       <r>    48.7299     2.2749    86.8776 </r>
       <r>    48.9825     2.4396    87.4939 </r>
       <r>    49.2352     3.9803    88.4994 </r>
       <r>    49.4878     0.4659    88.6171 </r>
       <r>    49.7404     3.0489    89.3873 </r>
       <r>    49.9930     4.2903    90.4712 </r>
       <r>    50.2457     0.5239    90.6035 </r>
       <r>    50.4983     1.8592    91.0732 </r>
       <r>    50.7509     3.2947    91.9055 </r>
       <r>    51.0035     2.1956    92.4602 </r>
       <r>    51.2562     3.7520    93.4080 </r>
       <r>    51.5088     2.4503    94.0270 </r>
       <r>    51.7614     3.0191    94.7897 </r>
       <r>    52.0140     0.1193    94.8198 </r>
       <r>    52.2667     0.9715    95.0653 </r>
       <r>    52.5193     4.3680    96.1687 </r>
       <r>    52.7719     1.2966    96.4963 </r>
       <r>    53.0245     2.1086    97.0290 </r>
       <r>    53.2771     4.3156    98.1192 </r>
       <r>    53.5298     0.9101    98.3491 </r>
       <r>    53.7824     2.4166    98.9596 </r>
       <r>    54.0350     2.3703    99.5584 </r>
       <r>    54.2876     1.6484    99.9748 </r>
       <r>    54.5403     2.6127   100.6348 </r>
       <r>    54.7929     2.2058   101.1921 </r>
       <r>    55.0455     1.0082   101.4467 </r>
       <r>    55.2981     0.9365   101.6833 </r>
       <r>    55.5508     3.8197   102.6483 </r>
       <r>    55.8034     2.2025   103.2047 </r>
       <r>    56.0560     2.8187   103.9167 </r>
       <r>    56.3086     3.2762   104.7444 </r>
       <r>    56.5612     3.3740   105.5967 </r>
       <r>    56.8139     0.9661   105.8408 </r>
       <r>    57.0665     1.9469   106.3326 </r>
       <r>    57.3191     4.8321   107.5533 </r>
       <r>    57.5717     1.9482   108.0455 </r>
       <r>    57.8244     3.4910   108.9274 </r>
       <r>    58.0770     1.3979   109.2805 </r>
       <r>    58.3296     4.2998   110.3668 </r>
       <r>    58.5822     1.8279   110.8285 </r>
       <r>    58.8349     0.8703   111.0484 </r>
       <r>    59.0875     1.0041   111.3020 </r>
       <r>    59.3401     0.7965   111.5032 </r>
       <r>    59.5927     1.7465   111.9444 </r>
       <r>    59.8453    -0.0029   111.9437 </r>
       <r>    60.0980     0.2228   112.0000 </r>
       <r>    60.3506     0.0000   112.0000 </r>
       <r>    60.6032     0.0000   112.0000 </r>
       <r>    60.8558     0.0000   112.0000 </r>
       <r>    61.1085     0.0000   112.0000 </r>
       <r>    61.3611     0.0000   112.0000 </r>
       <r>    61.6137     0.0000   112.0000 </r>
       <r>    61.8663     0.0000   112.0000 </r>
       <r>    62.1190     0.0000   112.0000 </r>
       <r>    62.3716     0.0000   112.0000 </r>
       <r>    62.6242     0.0000   112.0000 </r>
       <r>    62.8768     0.0000   112.0000 </r>
       <r>    63.1295     0.0000   112.0000 </r>
       <r>    63.3821     0.0000   112.0000 </r>
      </set>
     </set>
    </array>
   </total>
  </dos>
 </calculation>
 <structure name="finalpos" >
  <crystal>
   <varray name="basis" >
    <v>       0.00000000       2.81650000       2.81650000 </v>
    <v>       2.81650000       0.00000000       2.81650000 </v>
    <v>       2.81650000       2.81650000       0.00000000 </v>
   </varray>
   <i name="volume">     44.68474278 </i>
   <varray name="rec_basis" >
    <v>      -0.17752530       0.17752530       0.17752530 </v>
    <v>       0.17752530      -0.17752530       0.17752530 </v>
    <v>       0.17752530       0.17752530      -0.17752530 </v>
   </varray>
  </crystal>
  <varray name="positions" >
   <v>       0.00000000       0.00000000       0.00000000 </v>
   <v>       0.25000000       0.25000000       0.25000000 </v>
  </varray>
 </structure>
</modeling>
