<?xml version="1.0" encoding="ISO-8859-1"?>
<modeling>
 <generator>
  <i name="program" type="string">vasp </i>
  <i name="version" type="string">5.4.4.18Apr17-6-g9f103f2a35  </i>
  <i name="subversion" type="string">(build Nov 08 2017 12:56:59) complex            parallel </i>
  <i name="platform" type="string">LinuxIFC </i>
  <i name="date" type="string">2020 03 24 </i>
  <i name="time" type="string">22:28:55 </i>
 </generator>
 <incar>
  <i type="int" name="ISTART">     0</i>
  <i type="string" name="PREC">n</i>
  <i type="string" name="ALGO"> D</i>
  <i type="int" name="ICHARG">     2</i>
  <i name="ENCUT">    450.00000000</i>
  <i name="SIGMA">      0.05000000</i>
  <v type="int" name="KPOINT_BSE">    -1     0     0     0</v>
  <i type="string" name="GGA"> PE</i>
 </incar>
 <structure name="primitive_cell" >
  <crystal>
   <varray name="basis" >
    <v>       0.00000000       2.81650000       2.81650000 </v>
    <v>       2.81650000       0.00000000       2.81650000 </v>
    <v>       2.81650000       2.81650000       0.00000000 </v>
   </varray>
   <i name="volume">     44.68474278 </i>
   <varray name="rec_basis" >
    <v>      -0.17752530       0.17752530       0.17752530 </v>
    <v>       0.17752530      -0.17752530       0.17752530 </v>
    <v>       0.17752530       0.17752530      -0.17752530 </v>
   </varray>
  </crystal>
  <varray name="positions" >
   <v>       0.00000000       0.00000000       0.00000000 </v>
   <v>       0.25000000       0.25000000       0.25000000 </v>
  </varray>
 </structure>
 <varray name="primitive_index" >
  <v type="int" >        1 </v>
  <v type="int" >        2 </v>
 </varray>
 <kpoints>
  <generation param="Gamma">
   <v type="int" name="divisions">       6        6        6 </v>
   <v name="usershift">      0.00000000       0.00000000       0.00000000 </v>
   <v name="genvec1">      0.16666667       0.00000000       0.00000000 </v>
   <v name="genvec2">      0.00000000       0.16666667       0.00000000 </v>
   <v name="genvec3">      0.00000000       0.00000000       0.16666667 </v>
   <v name="shift">      0.00000000       0.00000000       0.00000000 </v>
  </generation>
  <varray name="kpointlist" >
   <v>       0.00000000       0.00000000       0.00000000 </v>
   <v>       0.16666667       0.00000000       0.00000000 </v>
   <v>       0.33333333       0.00000000       0.00000000 </v>
   <v>       0.50000000       0.00000000       0.00000000 </v>
   <v>       0.16666667       0.16666667       0.00000000 </v>
   <v>       0.33333333       0.16666667       0.00000000 </v>
   <v>       0.50000000       0.16666667       0.00000000 </v>
   <v>      -0.33333333       0.16666667       0.00000000 </v>
   <v>      -0.16666667       0.16666667       0.00000000 </v>
   <v>       0.33333333       0.33333333       0.00000000 </v>
   <v>       0.50000000       0.33333333       0.00000000 </v>
   <v>      -0.33333333       0.33333333       0.00000000 </v>
   <v>       0.50000000       0.50000000       0.00000000 </v>
   <v>       0.50000000       0.33333333       0.16666667 </v>
   <v>      -0.33333333       0.33333333       0.16666667 </v>
   <v>      -0.33333333       0.50000000       0.16666667 </v>
  </varray>
  <varray name="weights" >
   <v>       0.00462963 </v>
   <v>       0.03703704 </v>
   <v>       0.03703704 </v>
   <v>       0.01851852 </v>
   <v>       0.02777778 </v>
   <v>       0.11111111 </v>
   <v>       0.11111111 </v>
   <v>       0.11111111 </v>
   <v>       0.05555556 </v>
   <v>       0.02777778 </v>
   <v>       0.11111111 </v>
   <v>       0.05555556 </v>
   <v>       0.01388889 </v>
   <v>       0.11111111 </v>
   <v>       0.11111111 </v>
   <v>       0.05555556 </v>
  </varray>
 </kpoints>
 <parameters>
  <separator name="general" >
   <i type="string" name="SYSTEM">unknown system</i>
   <i type="logical" name="LCOMPAT"> F  </i>
  </separator>
  <separator name="electronic" >
   <i type="string" name="PREC">n</i>
   <i name="ENMAX">    450.00000000</i>
   <i name="ENAUG">    385.84300000</i>
   <i name="EDIFF">      0.00010000</i>
   <i type="int" name="IALGO">    53</i>
   <i type="int" name="IWAVPR">    10</i>
   <i type="int" name="NBANDS">    56</i>
   <i name="NELECT">      8.00000000</i>
   <i type="int" name="TURBO">     0</i>
   <i type="int" name="IRESTART">     0</i>
   <i type="int" name="NREBOOT">     0</i>
   <i type="int" name="NMIN">     0</i>
   <i name="EREF">      0.00000000</i>
   <separator name="electronic smearing" >
    <i type="int" name="ISMEAR">     1</i>
    <i name="SIGMA">      0.05000000</i>
    <i name="KSPACING">      0.50000000</i>
    <i type="logical" name="KGAMMA"> T  </i>
   </separator>
   <separator name="electronic projectors" >
    <i type="logical" name="LREAL"> F  </i>
    <v name="ROPT">      0.00000000</v>
    <i type="int" name="LMAXPAW">  -100</i>
    <i type="int" name="LMAXMIX">     2</i>
    <i type="logical" name="NLSPLINE"> F  </i>
   </separator>
   <separator name="electronic startup" >
    <i type="int" name="ISTART">     0</i>
    <i type="int" name="ICHARG">     2</i>
    <i type="int" name="INIWAV">     1</i>
   </separator>
   <separator name="electronic spin" >
    <i type="int" name="ISPIN">     1</i>
    <i type="logical" name="LNONCOLLINEAR"> F  </i>
    <v name="MAGMOM">      1.00000000      1.00000000</v>
    <i name="NUPDOWN">     -1.00000000</i>
    <i type="logical" name="LSORBIT"> F  </i>
    <v name="SAXIS">      0.00000000      0.00000000      1.00000000</v>
    <i type="logical" name="LSPIRAL"> F  </i>
    <v name="QSPIRAL">      0.00000000      0.00000000      0.00000000</v>
    <i type="logical" name="LZEROZ"> F  </i>
   </separator>
   <separator name="electronic exchange-correlation" >
    <i type="logical" name="LASPH"> F  </i>
    <i type="logical" name="LMETAGGA"> F  </i>
   </separator>
   <separator name="electronic convergence" >
    <i type="int" name="NELM">    60</i>
    <i type="int" name="NELMDL">    -5</i>
    <i type="int" name="NELMIN">     2</i>
    <i name="ENINI">    450.00000000</i>
    <separator name="electronic convergence detail" >
     <i type="logical" name="LDIAG"> T  </i>
     <i type="logical" name="LSUBROT"> F  </i>
     <i name="WEIMIN">      0.00000000</i>
     <i name="EBREAK">      0.00000045</i>
     <i name="DEPER">      0.30000000</i>
     <i type="int" name="NRMM">     4</i>
     <i name="TIME">      0.40000000</i>
    </separator>
   </separator>
   <separator name="electronic mixer" >
    <i name="AMIX">      0.40000000</i>
    <i name="BMIX">      1.00000000</i>
    <i name="AMIN">      0.10000000</i>
    <i name="AMIX_MAG">      1.60000000</i>
    <i name="BMIX_MAG">      1.00000000</i>
    <separator name="electronic mixer details" >
     <i type="int" name="IMIX">     4</i>
     <i type="logical" name="MIXFIRST"> F  </i>
     <i type="int" name="MAXMIX">   -45</i>
     <i name="WC">    100.00000000</i>
     <i type="int" name="INIMIX">     1</i>
     <i type="int" name="MIXPRE">     1</i>
     <i type="int" name="MREMOVE">     5</i>
    </separator>
   </separator>
   <separator name="electronic dipolcorrection" >
    <i type="logical" name="LDIPOL"> F  </i>
    <i type="logical" name="LMONO"> F  </i>
    <i type="int" name="IDIPOL">     0</i>
    <i name="EPSILON">      1.00000000</i>
    <v name="DIPOL">   -100.00000000   -100.00000000   -100.00000000</v>
    <i name="EFIELD">      0.00000000</i>
   </separator>
  </separator>
  <separator name="grids" >
   <i type="int" name="NGX">    24</i>
   <i type="int" name="NGY">    24</i>
   <i type="int" name="NGZ">    24</i>
   <i type="int" name="NGXF">    48</i>
   <i type="int" name="NGYF">    48</i>
   <i type="int" name="NGZF">    48</i>
   <i type="logical" name="ADDGRID"> F  </i>
  </separator>
  <separator name="ionic" >
   <i type="int" name="NSW">     0</i>
   <i type="int" name="IBRION">    -1</i>
   <i type="int" name="MDALGO">     0</i>
   <i type="int" name="ISIF">     2</i>
   <i name="PSTRESS">      0.00000000</i>
   <i name="EDIFFG">      0.00100000</i>
   <i type="int" name="NFREE">     0</i>
   <i name="POTIM">      0.50000000</i>
   <i name="SMASS">     -3.00000000</i>
   <i name="SCALEE">      1.00000000</i>
  </separator>
  <separator name="ionic md" >
   <i name="TEBEG">      0.00010000</i>
   <i name="TEEND">      0.00010000</i>
   <i type="int" name="NBLOCK">     1</i>
   <i type="int" name="KBLOCK">     1</i>
   <i type="int" name="NPACO">   256</i>
   <i name="APACO">     16.00000000</i>
  </separator>
  <separator name="symmetry" >
   <i type="int" name="ISYM">     2</i>
   <i name="SYMPREC">      0.00001000</i>
  </separator>
  <separator name="dos" >
   <i type="int" name="LORBIT">     0</i>
   <v name="RWIGS">     -1.00000000</v>
   <i type="int" name="NEDOS">   301</i>
   <i name="EMIN">     10.00000000</i>
   <i name="EMAX">    -10.00000000</i>
   <i name="EFERMI">      0.00000000</i>
  </separator>
  <separator name="writing" >
   <i type="int" name="NWRITE">     2</i>
   <i type="logical" name="LWAVE"> T  </i>
   <i type="logical" name="LDOWNSAMPLE"> F  </i>
   <i type="logical" name="LCHARG"> T  </i>
   <i type="logical" name="LPARD"> F  </i>
   <i type="logical" name="LVTOT"> F  </i>
   <i type="logical" name="LVHAR"> F  </i>
   <i type="logical" name="LELF"> F  </i>
   <i type="logical" name="LOPTICS"> F  </i>
   <v name="STM">      0.00000000      0.00000000      0.00000000      0.00000000      0.00000000      0.00000000      0.00000000</v>
  </separator>
  <separator name="performance" >
   <i type="int" name="NPAR">    56</i>
   <i type="int" name="NSIM">     4</i>
   <i type="int" name="NBLK">    -1</i>
   <i type="logical" name="LPLANE"> T  </i>
   <i type="logical" name="LSCALAPACK"> T  </i>
   <i type="logical" name="LSCAAWARE"> T  </i>
   <i type="logical" name="LSCALU"> F  </i>
   <i type="logical" name="LASYNC"> F  </i>
   <i type="logical" name="LORBITALREAL"> F  </i>
  </separator>
  <separator name="miscellaneous" >
   <i type="int" name="IDIOT">     3</i>
   <i type="int" name="ISPECIAL">     0</i>
   <i type="logical" name="LMUSIC"> F  </i>
   <v name="POMASS">     72.61000000</v>
   <v name="DARWINR">      0.00000000</v>
   <v name="DARWINV">      1.00000000</v>
   <i type="logical" name="LCORR"> T  </i>
  </separator>
  <i type="logical" name="GGA_COMPAT"> T  </i>
  <i type="logical" name="LBERRY"> F  </i>
  <i type="int" name="ICORELEVEL">     0</i>
  <i type="logical" name="LDAU"> F  </i>
  <i type="int" name="I_CONSTRAINED_M">     0</i>
  <separator name="electronic exchange-correlation" >
   <i type="string" name="GGA">PE</i>
   <i type="int" name="VOSKOWN">     0</i>
   <i type="logical" name="LHFCALC"> F  </i>
   <i type="string" name="PRECFOCK"></i>
   <i type="logical" name="LSYMGRAD"> F  </i>
   <i type="logical" name="LHFONE"> F  </i>
   <i type="logical" name="LRHFCALC"> F  </i>
   <i type="logical" name="LTHOMAS"> F  </i>
   <i type="logical" name="LMODELHF"> F  </i>
   <i name="ENCUT4O">     -1.00000000</i>
   <i type="int" name="EXXOEP">     0</i>
   <i type="int" name="FOURORBIT">     0</i>
   <i name="AEXX">      0.00000000</i>
   <i name="HFALPHA">      0.00000000</i>
   <i name="MCALPHA">      0.00000000</i>
   <i name="ALDAX">      1.00000000</i>
   <i name="AGGAX">      1.00000000</i>
   <i name="ALDAC">      1.00000000</i>
   <i name="AGGAC">      1.00000000</i>
   <i type="int" name="NKREDX">     1</i>
   <i type="int" name="NKREDY">     1</i>
   <i type="int" name="NKREDZ">     1</i>
   <i type="logical" name="SHIFTRED"> F  </i>
   <i type="logical" name="ODDONLY"> F  </i>
   <i type="logical" name="EVENONLY"> F  </i>
   <i type="int" name="LMAXFOCK">     0</i>
   <i type="int" name="NMAXFOCKAE">     0</i>
   <i type="logical" name="LFOCKAEDFT"> F  </i>
   <i name="HFSCREEN">      0.00000000</i>
   <i name="HFSCREENC">      0.00000000</i>
   <i type="int" name="NBANDSGWLOW">     0</i>
  </separator>
  <separator name="vdW DFT" >
   <i type="logical" name="LUSE_VDW"> F  </i>
   <i name="Zab_VDW">     -0.84910000</i>
   <i name="PARAM1">      0.12340000</i>
   <i name="PARAM2">      1.00000000</i>
   <i name="PARAM3">      0.00000000</i>
  </separator>
  <separator name="model GW" >
   <i type="int" name="MODEL_GW">     0</i>
   <i name="MODEL_EPS0">     13.40542284</i>
   <i name="MODEL_ALPHA">      1.00000000</i>
  </separator>
  <separator name="linear response parameters" >
   <i type="logical" name="LEPSILON"> F  </i>
   <i type="logical" name="LRPA"> F  </i>
   <i type="logical" name="LNABLA"> F  </i>
   <i type="logical" name="LVEL"> F  </i>
   <i type="int" name="KINTER">     0</i>
   <i name="CSHIFT">      0.10000000</i>
   <i name="OMEGAMAX">     -1.00000000</i>
   <i name="DEG_THRESHOLD">      0.00200000</i>
   <i name="RTIME">     -0.10000000</i>
   <i name="WPLASMAI">      0.00000000</i>
   <v name="DFIELD">      0.00000000      0.00000000      0.00000000</v>
   <v name="WPLASMA">      0.00000000      0.00000000      0.00000000      0.00000000      0.00000000      0.00000000      0.00000000      0.00000000      0.00000000</v>
  </separator>
  <separator name="orbital magnetization" >
   <i type="logical" name="NUCIND"> F  </i>
   <v name="MAGPOS">      0.00000000      0.00000000      0.00000000</v>
   <i type="logical" name="LNICSALL"> T  </i>
   <i type="logical" name="ORBITALMAG"> F  </i>
   <i type="logical" name="LMAGBLOCH"> F  </i>
   <i type="logical" name="LCHIMAG"> F  </i>
   <i type="logical" name="LGAUGE"> T  </i>
   <i type="int" name="MAGATOM">     0</i>
   <v name="MAGDIPOL">      0.00000000      0.00000000      0.00000000</v>
   <v name="AVECCONST">      0.00000000      0.00000000      0.00000000</v>
  </separator>
  <separator name="response functions" >
   <i type="logical" name="LADDER"> F  </i>
   <i type="logical" name="LRPAFORCE"> F  </i>
   <i type="logical" name="LFXC"> F  </i>
   <i type="logical" name="LHARTREE"> T  </i>
   <i type="int" name="IBSE">     0</i>
   <v type="int" name="KPOINT">    -1     0     0     0</v>
   <i type="logical" name="LTCTE"> F  </i>
   <i type="logical" name="LTETE"> F  </i>
   <i type="logical" name="LTRIPLET"> F  </i>
   <i type="logical" name="LFXCEPS"> F  </i>
   <i type="logical" name="LFXHEG"> F  </i>
   <i type="int" name="NATURALO">     2</i>
   <i type="logical" name="L2ORDER"> F  </i>
   <i type="logical" name="LMP2LT"> F  </i>
   <i type="logical" name="LUSEW"> F  </i>
   <i name="ENCUTGW">     -2.00000000</i>
   <i name="ENCUTGWSOFT">     -2.00000000</i>
   <i name="ENCUTLF">     -1.00000000</i>
   <i type="int" name="LMAXMP2">    -1</i>
   <i name="SCISSOR">      0.00000000</i>
   <i type="int" name="NOMEGA">     0</i>
   <i type="int" name="NOMEGAR">     0</i>
   <i type="int" name="NBANDSGW">    -1</i>
   <i type="int" name="NBANDSO">    -1</i>
   <i type="int" name="NBANDSV">    -1</i>
   <i type="int" name="NELM">     1</i>
   <i type="int" name="NELMHF">     1</i>
   <i type="int" name="DIM">     3</i>
   <i type="int" name="ANTIRES">     0</i>
   <i name="OMEGAMAX">    -30.00000000</i>
   <i name="OMEGAMIN">    -30.00000000</i>
   <i name="OMEGATL">   -200.00000000</i>
   <i type="int" name="OMEGAGRID">   140</i>
   <i name="CSHIFT">     -0.10000000</i>
   <i type="logical" name="SELFENERGY"> F  </i>
   <i type="logical" name="LSPECTRAL"> F  </i>
   <i type="logical" name="LSPECTRALGW"> F  </i>
   <i type="logical" name="LSINGLES"> F  </i>
   <i type="logical" name="LFERMIGW"> F  </i>
   <i type="logical" name="ODDONLYGW"> F  </i>
   <i type="logical" name="EVENONLYGW"> F  </i>
   <i type="int" name="NKREDLFX">     1</i>
   <i type="int" name="NKREDLFY">     1</i>
   <i type="int" name="NKREDLFZ">     1</i>
   <i type="int" name="MAXMEM">  2800</i>
   <i type="int" name="TELESCOPE">     0</i>
   <i type="int" name="TAUPAR">     1</i>
   <i type="int" name="OMEGAPAR">    -1</i>
   <i name="LAMBDA">      1.00000000</i>
  </separator>
  <separator name="External order field" >
   <i name="OFIELD_KAPPA">      0.00000000</i>
   <v name="OFIELD_K">      0.00000000      0.00000000      0.00000000</v>
   <i name="OFIELD_Q6_NEAR">      0.00000000</i>
   <i name="OFIELD_Q6_FAR">      0.00000000</i>
   <i name="OFIELD_A">      0.00000000</i>
  </separator>
 </parameters>
 <atominfo>
  <atoms>       2 </atoms>
  <types>       1 </types>
  <array name="atoms" >
   <dimension dim="1">ion</dimension>
   <field type="string">element</field>
   <field type="int">atomtype</field>
   <set>
    <rc><c>Ge</c><c>   1</c></rc>
    <rc><c>Ge</c><c>   1</c></rc>
   </set>
  </array>
  <array name="atomtypes" >
   <dimension dim="1">type</dimension>
   <field type="int">atomspertype</field>
   <field type="string">element</field>
   <field>mass</field>
   <field>valence</field>
   <field type="string">pseudopotential</field>
   <set>
    <rc><c>   2</c><c>Ge</c><c>     72.61000000</c><c>      4.00000000</c><c>  PAW_PBE Ge 05Jan2001                  </c></rc>
   </set>
  </array>
 </atominfo>
 <structure name="initialpos" >
  <crystal>
   <varray name="basis" >
    <v>       0.00000000       2.81650000       2.81650000 </v>
    <v>       2.81650000       0.00000000       2.81650000 </v>
    <v>       2.81650000       2.81650000       0.00000000 </v>
   </varray>
   <i name="volume">     44.68474278 </i>
   <varray name="rec_basis" >
    <v>      -0.17752530       0.17752530       0.17752530 </v>
    <v>       0.17752530      -0.17752530       0.17752530 </v>
    <v>       0.17752530       0.17752530      -0.17752530 </v>
   </varray>
  </crystal>
  <varray name="positions" >
   <v>       0.00000000       0.00000000       0.00000000 </v>
   <v>       0.25000000       0.25000000       0.25000000 </v>
  </varray>
 </structure>
 <calculation>
  <scstep>
   <time name="total">    1.08    2.15</time>
   <energy>
    <i name="alphaZ">     17.10940282 </i>
    <i name="ewald">   -220.32663596 </i>
    <i name="hartreedc">    -12.42928696 </i>
    <i name="XCdc">    -14.98288157 </i>
    <i name="pawpsdc">    176.29039040 </i>
    <i name="pawaedc">   -147.31525009 </i>
    <i name="eentropy">     -0.00024263 </i>
    <i name="bandstr">    -10.54541814 </i>
    <i name="atom">    209.99145059 </i>
    <i name="e_fr_energy">     -2.20847156 </i>
    <i name="e_wo_entrp">     -2.20822892 </i>
    <i name="e_0_energy">     -2.20839068 </i>
   </energy>
  </scstep>
  <scstep>
   <time name="total">    1.99    3.98</time>
   <energy>
    <i name="e_fr_energy">     -8.95156379 </i>
    <i name="e_wo_entrp">     -8.95158406 </i>
    <i name="e_0_energy">     -8.95157055 </i>
   </energy>
  </scstep>
  <scstep>
   <time name="total">    1.30    2.60</time>
   <energy>
    <i name="e_fr_energy">     -8.98213740 </i>
    <i name="e_wo_entrp">     -8.98215813 </i>
    <i name="e_0_energy">     -8.98214431 </i>
   </energy>
  </scstep>
  <scstep>
   <time name="total">    1.99    3.98</time>
   <energy>
    <i name="e_fr_energy">     -8.98231607 </i>
    <i name="e_wo_entrp">     -8.98235858 </i>
    <i name="e_0_energy">     -8.98233024 </i>
   </energy>
  </scstep>
  <scstep>
   <time name="total">    1.43    2.86</time>
   <energy>
    <i name="e_fr_energy">     -8.98231651 </i>
    <i name="e_wo_entrp">     -8.98235903 </i>
    <i name="e_0_energy">     -8.98233069 </i>
   </energy>
  </scstep>
  <scstep>
   <time name="total">    0.19    0.38</time>
   <energy>
    <i name="e_fr_energy">     -8.85356627 </i>
    <i name="e_wo_entrp">     -8.85360794 </i>
    <i name="e_0_energy">     -8.85358016 </i>
   </energy>
  </scstep>
  <scstep>
   <time name="total">    0.18    0.35</time>
   <energy>
    <i name="e_fr_energy">     -8.86435752 </i>
    <i name="e_wo_entrp">     -8.86437513 </i>
    <i name="e_0_energy">     -8.86436339 </i>
   </energy>
  </scstep>
  <scstep>
   <time name="total">    0.18    0.36</time>
   <energy>
    <i name="e_fr_energy">     -8.87308129 </i>
    <i name="e_wo_entrp">     -8.87312209 </i>
    <i name="e_0_energy">     -8.87309489 </i>
   </energy>
  </scstep>
  <scstep>
   <time name="total">    0.18    0.35</time>
   <energy>
    <i name="e_fr_energy">     -8.87755743 </i>
    <i name="e_wo_entrp">     -8.87759811 </i>
    <i name="e_0_energy">     -8.87757099 </i>
   </energy>
  </scstep>
  <scstep>
   <time name="total">    0.18    0.35</time>
   <energy>
    <i name="e_fr_energy">     -8.87943494 </i>
    <i name="e_wo_entrp">     -8.87947559 </i>
    <i name="e_0_energy">     -8.87944849 </i>
   </energy>
  </scstep>
  <scstep>
   <time name="total">    0.18    0.35</time>
   <energy>
    <i name="e_fr_energy">     -8.88011572 </i>
    <i name="e_wo_entrp">     -8.88015638 </i>
    <i name="e_0_energy">     -8.88012927 </i>
   </energy>
  </scstep>
  <scstep>
   <time name="total">    0.18    0.36</time>
   <energy>
    <i name="e_fr_energy">     -8.88032868 </i>
    <i name="e_wo_entrp">     -8.88036937 </i>
    <i name="e_0_energy">     -8.88034224 </i>
   </energy>
  </scstep>
  <scstep>
   <time name="total">    0.28    0.56</time>
   <energy>
    <i name="alphaZ">     17.10940282 </i>
    <i name="ewald">   -220.32663596 </i>
    <i name="hartreedc">    -15.49693617 </i>
    <i name="XCdc">    -14.36533511 </i>
    <i name="pawpsdc">    470.69849279 </i>
    <i name="pawaedc">   -442.08007910 </i>
    <i name="eentropy">      0.00004073 </i>
    <i name="bandstr">    -14.41078236 </i>
    <i name="atom">    209.99145059 </i>
    <i name="e_fr_energy">     -8.88038183 </i>
    <i name="e_wo_entrp">     -8.88042256 </i>
    <i name="e_0_energy">     -8.88039541 </i>
   </energy>
  </scstep>
  <structure>
   <crystal>
    <varray name="basis" >
     <v>       0.00000000       2.81650000       2.81650000 </v>
     <v>       2.81650000       0.00000000       2.81650000 </v>
     <v>       2.81650000       2.81650000       0.00000000 </v>
    </varray>
    <i name="volume">     44.68474278 </i>
    <varray name="rec_basis" >
     <v>      -0.17752530       0.17752530       0.17752530 </v>
     <v>       0.17752530      -0.17752530       0.17752530 </v>
     <v>       0.17752530       0.17752530      -0.17752530 </v>
    </varray>
   </crystal>
   <varray name="positions" >
    <v>       0.00000000       0.00000000       0.00000000 </v>
    <v>       0.25000000       0.25000000       0.25000000 </v>
   </varray>
  </structure>
  <varray name="forces" >
   <v>      -0.00000000      -0.00000000      -0.00000000 </v>
   <v>       0.00000000       0.00000000       0.00000000 </v>
  </varray>
  <varray name="stress" >
   <v>      54.61627583      -0.00000000       0.00000000 </v>
   <v>      -0.00000000      54.61627583      -0.00000000 </v>
   <v>       0.00000000      -0.00000000      54.61627583 </v>
  </varray>
  <energy>
   <i name="e_fr_energy">     -8.88038183 </i>
   <i name="e_wo_entrp">     -8.88039541 </i>
   <i name="e_0_energy">      0.00004073 </i>
  </energy>
  <time name="totalsc">    9.65   19.50</time>
  <eigenvalues>
   <array>
    <dimension dim="1">band</dimension>
    <dimension dim="2">kpoint</dimension>
    <dimension dim="3">spin</dimension>
    <field>eigene</field>
    <field>occ</field>
    <set>
     <set comment="spin 1">
      <set comment="kpoint 1">
       <r>   -8.9868    1.0000 </r>
       <r>    3.8987    1.0001 </r>
       <r>    3.8987    1.0001 </r>
       <r>    3.8987    1.0001 </r>
       <r>    4.0791   -0.0002 </r>
       <r>    6.4272    0.0000 </r>
       <r>    6.4272    0.0000 </r>
       <r>    6.4272    0.0000 </r>
       <r>   10.3319    0.0000 </r>
       <r>   13.1821    0.0000 </r>
       <r>   13.1821    0.0000 </r>
       <r>   14.6283    0.0000 </r>
       <r>   14.6283    0.0000 </r>
       <r>   14.6283    0.0000 </r>
       <r>   17.7481    0.0000 </r>
       <r>   28.2437    0.0000 </r>
       <r>   28.2437    0.0000 </r>
       <r>   28.2437    0.0000 </r>
       <r>   29.0732    0.0000 </r>
       <r>   29.0732    0.0000 </r>
       <r>   29.0732    0.0000 </r>
       <r>   29.4562    0.0000 </r>
       <r>   29.4562    0.0000 </r>
       <r>   30.1532    0.0000 </r>
       <r>   30.1532    0.0000 </r>
       <r>   30.1532    0.0000 </r>
       <r>   38.6149    0.0000 </r>
       <r>   39.0893    0.0000 </r>
       <r>   39.0893    0.0000 </r>
       <r>   39.0893    0.0000 </r>
       <r>   41.9271    0.0000 </r>
       <r>   41.9271    0.0000 </r>
       <r>   42.4960    0.0000 </r>
       <r>   42.4960    0.0000 </r>
       <r>   43.4300    0.0000 </r>
       <r>   43.6605    0.0000 </r>
       <r>   43.6605    0.0000 </r>
       <r>   43.6605    0.0000 </r>
       <r>   44.0733    0.0000 </r>
       <r>   44.0733    0.0000 </r>
       <r>   44.0733    0.0000 </r>
       <r>   44.8914    0.0000 </r>
       <r>   44.8914    0.0000 </r>
       <r>   44.8915    0.0000 </r>
       <r>   45.3699    0.0000 </r>
       <r>   45.3699    0.0000 </r>
       <r>   45.3701    0.0000 </r>
       <r>   46.5020    0.0000 </r>
       <r>   46.5020    0.0000 </r>
       <r>   46.5025    0.0000 </r>
       <r>   49.9193    0.0000 </r>
       <r>   51.9153    0.0000 </r>
       <r>   51.9155    0.0000 </r>
       <r>   52.0771    0.0000 </r>
       <r>   52.1861    0.0000 </r>
       <r>   52.1874    0.0000 </r>
      </set>
      <set comment="kpoint 2">
       <r>   -8.6470    1.0000 </r>
       <r>    0.7335    1.0000 </r>
       <r>    3.3619    1.0000 </r>
       <r>    3.3619    1.0000 </r>
       <r>    4.9078   -0.0000 </r>
       <r>    7.1310    0.0000 </r>
       <r>    7.1310    0.0000 </r>
       <r>    8.1113    0.0000 </r>
       <r>   11.7339    0.0000 </r>
       <r>   12.1175    0.0000 </r>
       <r>   12.1175    0.0000 </r>
       <r>   13.8521    0.0000 </r>
       <r>   16.9671    0.0000 </r>
       <r>   16.9671    0.0000 </r>
       <r>   19.9755    0.0000 </r>
       <r>   24.0634    0.0000 </r>
       <r>   24.0634    0.0000 </r>
       <r>   24.4102    0.0000 </r>
       <r>   29.0779    0.0000 </r>
       <r>   29.0779    0.0000 </r>
       <r>   29.6359    0.0000 </r>
       <r>   29.6359    0.0000 </r>
       <r>   30.4403    0.0000 </r>
       <r>   31.7768    0.0000 </r>
       <r>   34.7424    0.0000 </r>
       <r>   34.9303    0.0000 </r>
       <r>   34.9303    0.0000 </r>
       <r>   37.0641    0.0000 </r>
       <r>   37.0641    0.0000 </r>
       <r>   38.1109    0.0000 </r>
       <r>   38.1109    0.0000 </r>
       <r>   39.7705    0.0000 </r>
       <r>   39.7705    0.0000 </r>
       <r>   40.0335    0.0000 </r>
       <r>   41.5159    0.0000 </r>
       <r>   41.5508    0.0000 </r>
       <r>   42.9214    0.0000 </r>
       <r>   42.9214    0.0000 </r>
       <r>   43.7307    0.0000 </r>
       <r>   44.2198    0.0000 </r>
       <r>   44.6312    0.0000 </r>
       <r>   44.6312    0.0000 </r>
       <r>   45.9088    0.0000 </r>
       <r>   47.1414    0.0000 </r>
       <r>   47.1415    0.0000 </r>
       <r>   48.3584    0.0000 </r>
       <r>   48.3586    0.0000 </r>
       <r>   48.3963    0.0000 </r>
       <r>   49.9607    0.0000 </r>
       <r>   49.9608    0.0000 </r>
       <r>   50.7535    0.0000 </r>
       <r>   51.4155    0.0000 </r>
       <r>   52.7100    0.0000 </r>
       <r>   52.7244    0.0000 </r>
       <r>   55.4918    0.0000 </r>
       <r>   55.5338    0.0000 </r>
      </set>
      <set comment="kpoint 3">
       <r>   -7.7041    1.0000 </r>
       <r>   -2.2396    1.0000 </r>
       <r>    2.7042    1.0000 </r>
       <r>    2.7042    1.0000 </r>
       <r>    4.3456   -0.0000 </r>
       <r>    7.6536    0.0000 </r>
       <r>    7.6536    0.0000 </r>
       <r>   10.9779    0.0000 </r>
       <r>   11.7608    0.0000 </r>
       <r>   12.7584    0.0000 </r>
       <r>   12.7584    0.0000 </r>
       <r>   16.4036    0.0000 </r>
       <r>   19.3499    0.0000 </r>
       <r>   19.3499    0.0000 </r>
       <r>   20.5468    0.0000 </r>
       <r>   20.9331    0.0000 </r>
       <r>   20.9331    0.0000 </r>
       <r>   24.2130    0.0000 </r>
       <r>   28.9743    0.0000 </r>
       <r>   29.3996    0.0000 </r>
       <r>   29.3996    0.0000 </r>
       <r>   30.2476    0.0000 </r>
       <r>   30.2476    0.0000 </r>
       <r>   31.1684    0.0000 </r>
       <r>   31.3743    0.0000 </r>
       <r>   31.3743    0.0000 </r>
       <r>   33.1958    0.0000 </r>
       <r>   35.9410    0.0000 </r>
       <r>   35.9410    0.0000 </r>
       <r>   36.5327    0.0000 </r>
       <r>   36.5327    0.0000 </r>
       <r>   36.7267    0.0000 </r>
       <r>   38.5125    0.0000 </r>
       <r>   39.1490    0.0000 </r>
       <r>   41.8280    0.0000 </r>
       <r>   41.8280    0.0000 </r>
       <r>   42.5468    0.0000 </r>
       <r>   42.5468    0.0000 </r>
       <r>   43.0741    0.0000 </r>
       <r>   44.7386    0.0000 </r>
       <r>   44.7386    0.0000 </r>
       <r>   44.8526    0.0000 </r>
       <r>   46.2752    0.0000 </r>
       <r>   49.9690    0.0000 </r>
       <r>   49.9690    0.0000 </r>
       <r>   51.2109    0.0000 </r>
       <r>   51.2117    0.0000 </r>
       <r>   52.5499    0.0000 </r>
       <r>   53.5609    0.0000 </r>
       <r>   53.5612    0.0000 </r>
       <r>   54.0954    0.0000 </r>
       <r>   56.5438    0.0000 </r>
       <r>   57.0174    0.0000 </r>
       <r>   57.0942    0.0000 </r>
       <r>   58.3004    0.0000 </r>
       <r>   58.3262    0.0000 </r>
      </set>
      <set comment="kpoint 4">
       <r>   -6.8710    1.0000 </r>
       <r>   -3.7765    1.0000 </r>
       <r>    2.4622    1.0000 </r>
       <r>    2.4622    1.0000 </r>
       <r>    4.1178   -0.0000 </r>
       <r>    7.6119    0.0000 </r>
       <r>    7.6119    0.0000 </r>
       <r>   10.9872    0.0000 </r>
       <r>   14.5067    0.0000 </r>
       <r>   15.0712    0.0000 </r>
       <r>   15.0712    0.0000 </r>
       <r>   15.1533    0.0000 </r>
       <r>   16.0468    0.0000 </r>
       <r>   16.0468    0.0000 </r>
       <r>   22.6747    0.0000 </r>
       <r>   23.8489    0.0000 </r>
       <r>   25.3494    0.0000 </r>
       <r>   25.3494    0.0000 </r>
       <r>   25.4698    0.0000 </r>
       <r>   25.4698    0.0000 </r>
       <r>   28.7950    0.0000 </r>
       <r>   29.9979    0.0000 </r>
       <r>   30.2526    0.0000 </r>
       <r>   30.2526    0.0000 </r>
       <r>   30.9782    0.0000 </r>
       <r>   30.9782    0.0000 </r>
       <r>   31.6755    0.0000 </r>
       <r>   35.1706    0.0000 </r>
       <r>   35.1706    0.0000 </r>
       <r>   35.3037    0.0000 </r>
       <r>   35.3037    0.0000 </r>
       <r>   36.1158    0.0000 </r>
       <r>   37.2405    0.0000 </r>
       <r>   37.3918    0.0000 </r>
       <r>   42.4922    0.0000 </r>
       <r>   42.4922    0.0000 </r>
       <r>   42.7501    0.0000 </r>
       <r>   43.7553    0.0000 </r>
       <r>   43.7553    0.0000 </r>
       <r>   44.7120    0.0000 </r>
       <r>   48.0818    0.0000 </r>
       <r>   48.0818    0.0000 </r>
       <r>   49.4396    0.0000 </r>
       <r>   49.4396    0.0000 </r>
       <r>   50.2365    0.0000 </r>
       <r>   52.3857    0.0000 </r>
       <r>   52.8597    0.0000 </r>
       <r>   52.8600    0.0000 </r>
       <r>   54.2442    0.0000 </r>
       <r>   54.2481    0.0000 </r>
       <r>   54.8068    0.0000 </r>
       <r>   56.0224    0.0000 </r>
       <r>   56.0269    0.0000 </r>
       <r>   57.7322    0.0000 </r>
       <r>   57.7588    0.0000 </r>
       <r>   58.5002    0.0000 </r>
      </set>
      <set comment="kpoint 5">
       <r>   -8.5304    1.0000 </r>
       <r>    0.7535    1.0000 </r>
       <r>    2.5744    1.0000 </r>
       <r>    2.5744    1.0000 </r>
       <r>    5.4451    0.0000 </r>
       <r>    6.7270    0.0000 </r>
       <r>    8.3147    0.0000 </r>
       <r>    8.3147    0.0000 </r>
       <r>   10.6989    0.0000 </r>
       <r>   12.3320    0.0000 </r>
       <r>   13.6418    0.0000 </r>
       <r>   15.5593    0.0000 </r>
       <r>   15.5593    0.0000 </r>
       <r>   16.3762    0.0000 </r>
       <r>   21.2963    0.0000 </r>
       <r>   23.6522    0.0000 </r>
       <r>   23.6522    0.0000 </r>
       <r>   24.7536    0.0000 </r>
       <r>   25.4148    0.0000 </r>
       <r>   28.6696    0.0000 </r>
       <r>   30.0309    0.0000 </r>
       <r>   30.0309    0.0000 </r>
       <r>   31.3834    0.0000 </r>
       <r>   34.8062    0.0000 </r>
       <r>   34.8062    0.0000 </r>
       <r>   35.0711    0.0000 </r>
       <r>   35.0711    0.0000 </r>
       <r>   35.4003    0.0000 </r>
       <r>   35.4273    0.0000 </r>
       <r>   36.3158    0.0000 </r>
       <r>   37.8099    0.0000 </r>
       <r>   40.4196    0.0000 </r>
       <r>   40.4196    0.0000 </r>
       <r>   40.6043    0.0000 </r>
       <r>   41.3164    0.0000 </r>
       <r>   41.5991    0.0000 </r>
       <r>   42.0479    0.0000 </r>
       <r>   42.0479    0.0000 </r>
       <r>   42.7194    0.0000 </r>
       <r>   45.1762    0.0000 </r>
       <r>   45.6963    0.0000 </r>
       <r>   45.6963    0.0000 </r>
       <r>   46.2874    0.0000 </r>
       <r>   47.2201    0.0000 </r>
       <r>   47.9285    0.0000 </r>
       <r>   47.9285    0.0000 </r>
       <r>   48.6870    0.0000 </r>
       <r>   48.6870    0.0000 </r>
       <r>   48.8401    0.0000 </r>
       <r>   49.8754    0.0000 </r>
       <r>   50.2890    0.0000 </r>
       <r>   51.5266    0.0000 </r>
       <r>   53.0369    0.0000 </r>
       <r>   53.0380    0.0000 </r>
       <r>   56.0151    0.0000 </r>
       <r>   56.8052    0.0000 </r>
      </set>
      <set comment="kpoint 6">
       <r>   -7.7658    1.0000 </r>
       <r>   -1.5404    1.0000 </r>
       <r>    1.5663    1.0000 </r>
       <r>    1.9513    1.0000 </r>
       <r>    5.6594    0.0000 </r>
       <r>    7.0545    0.0000 </r>
       <r>    8.8076    0.0000 </r>
       <r>    9.1809    0.0000 </r>
       <r>   12.3994    0.0000 </r>
       <r>   13.6131    0.0000 </r>
       <r>   14.0178    0.0000 </r>
       <r>   15.9414    0.0000 </r>
       <r>   18.2179    0.0000 </r>
       <r>   19.4585    0.0000 </r>
       <r>   19.7441    0.0000 </r>
       <r>   20.0574    0.0000 </r>
       <r>   24.0249    0.0000 </r>
       <r>   24.8588    0.0000 </r>
       <r>   25.0816    0.0000 </r>
       <r>   26.3750    0.0000 </r>
       <r>   29.0827    0.0000 </r>
       <r>   30.6535    0.0000 </r>
       <r>   30.9256    0.0000 </r>
       <r>   32.1894    0.0000 </r>
       <r>   32.2170    0.0000 </r>
       <r>   33.3682    0.0000 </r>
       <r>   34.8533    0.0000 </r>
       <r>   34.9333    0.0000 </r>
       <r>   35.6692    0.0000 </r>
       <r>   35.8817    0.0000 </r>
       <r>   37.7589    0.0000 </r>
       <r>   37.8677    0.0000 </r>
       <r>   38.9689    0.0000 </r>
       <r>   39.8604    0.0000 </r>
       <r>   39.8650    0.0000 </r>
       <r>   41.2828    0.0000 </r>
       <r>   42.4559    0.0000 </r>
       <r>   43.5740    0.0000 </r>
       <r>   44.6851    0.0000 </r>
       <r>   44.8518    0.0000 </r>
       <r>   45.5306    0.0000 </r>
       <r>   45.8166    0.0000 </r>
       <r>   46.4610    0.0000 </r>
       <r>   47.4649    0.0000 </r>
       <r>   48.2511    0.0000 </r>
       <r>   48.6406    0.0000 </r>
       <r>   51.0510    0.0000 </r>
       <r>   51.5882    0.0000 </r>
       <r>   51.7251    0.0000 </r>
       <r>   52.3433    0.0000 </r>
       <r>   53.8934    0.0000 </r>
       <r>   55.4206    0.0000 </r>
       <r>   56.3327    0.0000 </r>
       <r>   57.5151    0.0000 </r>
       <r>   58.2624    0.0000 </r>
       <r>   58.6665    0.0000 </r>
      </set>
      <set comment="kpoint 7">
       <r>   -6.6942    1.0000 </r>
       <r>   -3.5644    1.0000 </r>
       <r>    0.7249    1.0000 </r>
       <r>    1.8849    1.0000 </r>
       <r>    5.5236    0.0000 </r>
       <r>    7.6898    0.0000 </r>
       <r>    8.8563    0.0000 </r>
       <r>   10.3085    0.0000 </r>
       <r>   13.1101    0.0000 </r>
       <r>   14.9495    0.0000 </r>
       <r>   15.0440    0.0000 </r>
       <r>   15.7939    0.0000 </r>
       <r>   16.6038    0.0000 </r>
       <r>   20.0988    0.0000 </r>
       <r>   21.6774    0.0000 </r>
       <r>   22.5310    0.0000 </r>
       <r>   23.7248    0.0000 </r>
       <r>   24.5463    0.0000 </r>
       <r>   25.4742    0.0000 </r>
       <r>   26.4909    0.0000 </r>
       <r>   26.9930    0.0000 </r>
       <r>   29.3313    0.0000 </r>
       <r>   29.3829    0.0000 </r>
       <r>   30.4251    0.0000 </r>
       <r>   30.5829    0.0000 </r>
       <r>   31.5205    0.0000 </r>
       <r>   32.3673    0.0000 </r>
       <r>   32.9741    0.0000 </r>
       <r>   34.8093    0.0000 </r>
       <r>   36.1568    0.0000 </r>
       <r>   36.3876    0.0000 </r>
       <r>   37.3637    0.0000 </r>
       <r>   38.5295    0.0000 </r>
       <r>   39.4198    0.0000 </r>
       <r>   40.1831    0.0000 </r>
       <r>   42.0703    0.0000 </r>
       <r>   42.9603    0.0000 </r>
       <r>   44.2754    0.0000 </r>
       <r>   46.3284    0.0000 </r>
       <r>   46.9519    0.0000 </r>
       <r>   47.1323    0.0000 </r>
       <r>   47.7364    0.0000 </r>
       <r>   48.4854    0.0000 </r>
       <r>   48.8374    0.0000 </r>
       <r>   49.2063    0.0000 </r>
       <r>   50.8894    0.0000 </r>
       <r>   51.1266    0.0000 </r>
       <r>   52.9013    0.0000 </r>
       <r>   53.1673    0.0000 </r>
       <r>   53.6567    0.0000 </r>
       <r>   55.9953    0.0000 </r>
       <r>   56.1255    0.0000 </r>
       <r>   57.2110    0.0000 </r>
       <r>   57.7589    0.0000 </r>
       <r>   58.8765    0.0000 </r>
       <r>   59.4034    0.0000 </r>
      </set>
      <set comment="kpoint 8">
       <r>   -7.0325    1.0000 </r>
       <r>   -3.0165    1.0000 </r>
       <r>    0.5114    1.0000 </r>
       <r>    2.3835    1.0000 </r>
       <r>    5.6749    0.0000 </r>
       <r>    7.9413    0.0000 </r>
       <r>    8.3293    0.0000 </r>
       <r>   10.6781    0.0000 </r>
       <r>   12.1371    0.0000 </r>
       <r>   13.0255    0.0000 </r>
       <r>   14.8811    0.0000 </r>
       <r>   16.6719    0.0000 </r>
       <r>   18.3380    0.0000 </r>
       <r>   20.0404    0.0000 </r>
       <r>   20.0787    0.0000 </r>
       <r>   21.6441    0.0000 </r>
       <r>   24.2080    0.0000 </r>
       <r>   25.5089    0.0000 </r>
       <r>   26.2039    0.0000 </r>
       <r>   26.4589    0.0000 </r>
       <r>   27.5723    0.0000 </r>
       <r>   27.5856    0.0000 </r>
       <r>   30.3575    0.0000 </r>
       <r>   30.7283    0.0000 </r>
       <r>   31.2490    0.0000 </r>
       <r>   31.4401    0.0000 </r>
       <r>   31.4864    0.0000 </r>
       <r>   35.0879    0.0000 </r>
       <r>   35.7520    0.0000 </r>
       <r>   36.3093    0.0000 </r>
       <r>   36.6998    0.0000 </r>
       <r>   37.9212    0.0000 </r>
       <r>   38.2430    0.0000 </r>
       <r>   39.0963    0.0000 </r>
       <r>   39.9423    0.0000 </r>
       <r>   41.8935    0.0000 </r>
       <r>   42.5605    0.0000 </r>
       <r>   43.1410    0.0000 </r>
       <r>   43.4258    0.0000 </r>
       <r>   45.9074    0.0000 </r>
       <r>   47.6208    0.0000 </r>
       <r>   47.9831    0.0000 </r>
       <r>   49.1398    0.0000 </r>
       <r>   49.8368    0.0000 </r>
       <r>   49.9838    0.0000 </r>
       <r>   50.8547    0.0000 </r>
       <r>   52.0895    0.0000 </r>
       <r>   52.9416    0.0000 </r>
       <r>   53.1974    0.0000 </r>
       <r>   53.7844    0.0000 </r>
       <r>   54.4935    0.0000 </r>
       <r>   55.3881    0.0000 </r>
       <r>   56.1511    0.0000 </r>
       <r>   57.5004    0.0000 </r>
       <r>   57.8904    0.0000 </r>
       <r>   58.3649    0.0000 </r>
      </set>
      <set comment="kpoint 9">
       <r>   -8.0951    1.0000 </r>
       <r>   -0.8238    1.0000 </r>
       <r>    1.2915    1.0000 </r>
       <r>    3.1882    1.0000 </r>
       <r>    5.8805    0.0000 </r>
       <r>    7.4454    0.0000 </r>
       <r>    7.6879    0.0000 </r>
       <r>    9.0436    0.0000 </r>
       <r>   11.1082    0.0000 </r>
       <r>   13.2428    0.0000 </r>
       <r>   13.3021    0.0000 </r>
       <r>   15.5721    0.0000 </r>
       <r>   16.8984    0.0000 </r>
       <r>   19.3718    0.0000 </r>
       <r>   20.1765    0.0000 </r>
       <r>   22.5111    0.0000 </r>
       <r>   24.0215    0.0000 </r>
       <r>   24.5131    0.0000 </r>
       <r>   24.5995    0.0000 </r>
       <r>   26.4866    0.0000 </r>
       <r>   30.2495    0.0000 </r>
       <r>   30.7258    0.0000 </r>
       <r>   31.7418    0.0000 </r>
       <r>   32.7866    0.0000 </r>
       <r>   33.2160    0.0000 </r>
       <r>   33.8109    0.0000 </r>
       <r>   34.7657    0.0000 </r>
       <r>   35.6555    0.0000 </r>
       <r>   36.2054    0.0000 </r>
       <r>   36.5391    0.0000 </r>
       <r>   36.8020    0.0000 </r>
       <r>   38.4685    0.0000 </r>
       <r>   39.4007    0.0000 </r>
       <r>   39.7921    0.0000 </r>
       <r>   39.9884    0.0000 </r>
       <r>   40.6289    0.0000 </r>
       <r>   41.8856    0.0000 </r>
       <r>   42.1059    0.0000 </r>
       <r>   43.6967    0.0000 </r>
       <r>   44.7202    0.0000 </r>
       <r>   45.4260    0.0000 </r>
       <r>   45.9980    0.0000 </r>
       <r>   46.9632    0.0000 </r>
       <r>   48.1074    0.0000 </r>
       <r>   48.1618    0.0000 </r>
       <r>   48.8676    0.0000 </r>
       <r>   49.7113    0.0000 </r>
       <r>   49.7688    0.0000 </r>
       <r>   52.3616    0.0000 </r>
       <r>   53.2366    0.0000 </r>
       <r>   54.0632    0.0000 </r>
       <r>   54.1752    0.0000 </r>
       <r>   55.7555    0.0000 </r>
       <r>   56.4718    0.0000 </r>
       <r>   56.8785    0.0000 </r>
       <r>   58.0230    0.0000 </r>
      </set>
      <set comment="kpoint 10">
       <r>   -7.1871    1.0000 </r>
       <r>   -2.3187    1.0000 </r>
       <r>    1.2346    1.0000 </r>
       <r>    1.2346    1.0000 </r>
       <r>    4.5162   -0.0000 </r>
       <r>    5.8393    0.0000 </r>
       <r>   11.2460    0.0000 </r>
       <r>   11.2460    0.0000 </r>
       <r>   12.4352    0.0000 </r>
       <r>   15.0242    0.0000 </r>
       <r>   15.8289    0.0000 </r>
       <r>   18.3090    0.0000 </r>
       <r>   18.3090    0.0000 </r>
       <r>   18.8079    0.0000 </r>
       <r>   19.2881    0.0000 </r>
       <r>   19.2881    0.0000 </r>
       <r>   20.5847    0.0000 </r>
       <r>   21.9025    0.0000 </r>
       <r>   27.4771    0.0000 </r>
       <r>   28.2600    0.0000 </r>
       <r>   28.6227    0.0000 </r>
       <r>   28.6227    0.0000 </r>
       <r>   29.5216    0.0000 </r>
       <r>   30.3592    0.0000 </r>
       <r>   31.2479    0.0000 </r>
       <r>   31.2479    0.0000 </r>
       <r>   32.6230    0.0000 </r>
       <r>   36.4313    0.0000 </r>
       <r>   37.3658    0.0000 </r>
       <r>   37.3658    0.0000 </r>
       <r>   38.7081    0.0000 </r>
       <r>   39.2884    0.0000 </r>
       <r>   40.5198    0.0000 </r>
       <r>   40.5198    0.0000 </r>
       <r>   40.7557    0.0000 </r>
       <r>   40.8412    0.0000 </r>
       <r>   40.8412    0.0000 </r>
       <r>   42.8889    0.0000 </r>
       <r>   43.5773    0.0000 </r>
       <r>   43.6695    0.0000 </r>
       <r>   44.4365    0.0000 </r>
       <r>   44.4365    0.0000 </r>
       <r>   46.1896    0.0000 </r>
       <r>   48.9945    0.0000 </r>
       <r>   50.3966    0.0000 </r>
       <r>   50.3967    0.0000 </r>
       <r>   51.5314    0.0000 </r>
       <r>   52.3301    0.0000 </r>
       <r>   53.1335    0.0000 </r>
       <r>   53.1345    0.0000 </r>
       <r>   53.6704    0.0000 </r>
       <r>   54.1870    0.0000 </r>
       <r>   57.7465    0.0000 </r>
       <r>   58.4427    0.0000 </r>
       <r>   58.4728    0.0000 </r>
       <r>   59.9123    0.0000 </r>
      </set>
      <set comment="kpoint 11">
       <r>   -6.1019    1.0000 </r>
       <r>   -3.8388    1.0000 </r>
       <r>    0.0767    1.0000 </r>
       <r>    1.0750    1.0000 </r>
       <r>    4.9077   -0.0000 </r>
       <r>    6.5509    0.0000 </r>
       <r>   10.9657    0.0000 </r>
       <r>   11.5279    0.0000 </r>
       <r>   14.3344    0.0000 </r>
       <r>   15.4096    0.0000 </r>
       <r>   15.9522    0.0000 </r>
       <r>   17.2844    0.0000 </r>
       <r>   17.7891    0.0000 </r>
       <r>   19.8582    0.0000 </r>
       <r>   20.7225    0.0000 </r>
       <r>   21.4348    0.0000 </r>
       <r>   22.0895    0.0000 </r>
       <r>   23.0530    0.0000 </r>
       <r>   23.6730    0.0000 </r>
       <r>   26.1382    0.0000 </r>
       <r>   26.3129    0.0000 </r>
       <r>   26.6339    0.0000 </r>
       <r>   28.5918    0.0000 </r>
       <r>   30.0735    0.0000 </r>
       <r>   31.8519    0.0000 </r>
       <r>   31.9063    0.0000 </r>
       <r>   33.9553    0.0000 </r>
       <r>   34.0147    0.0000 </r>
       <r>   35.5470    0.0000 </r>
       <r>   36.4273    0.0000 </r>
       <r>   37.5204    0.0000 </r>
       <r>   38.3084    0.0000 </r>
       <r>   38.8702    0.0000 </r>
       <r>   39.2625    0.0000 </r>
       <r>   41.7006    0.0000 </r>
       <r>   41.8070    0.0000 </r>
       <r>   42.8029    0.0000 </r>
       <r>   43.7645    0.0000 </r>
       <r>   44.7824    0.0000 </r>
       <r>   45.0145    0.0000 </r>
       <r>   45.7383    0.0000 </r>
       <r>   47.9550    0.0000 </r>
       <r>   48.3971    0.0000 </r>
       <r>   49.1131    0.0000 </r>
       <r>   49.8302    0.0000 </r>
       <r>   50.6959    0.0000 </r>
       <r>   51.3901    0.0000 </r>
       <r>   53.0785    0.0000 </r>
       <r>   54.3895    0.0000 </r>
       <r>   54.6803    0.0000 </r>
       <r>   55.8833    0.0000 </r>
       <r>   56.4674    0.0000 </r>
       <r>   57.0338    0.0000 </r>
       <r>   57.1904    0.0000 </r>
       <r>   58.2096    0.0000 </r>
       <r>   59.1056    0.0000 </r>
      </set>
      <set comment="kpoint 12">
       <r>   -5.9649    1.0000 </r>
       <r>   -3.9879    1.0000 </r>
       <r>   -0.6514    1.0000 </r>
       <r>    1.5347    1.0000 </r>
       <r>    5.3125    0.0000 </r>
       <r>    9.6895    0.0000 </r>
       <r>   10.3425    0.0000 </r>
       <r>   10.3477    0.0000 </r>
       <r>   11.0697    0.0000 </r>
       <r>   12.6993    0.0000 </r>
       <r>   17.5111    0.0000 </r>
       <r>   17.7466    0.0000 </r>
       <r>   19.4754    0.0000 </r>
       <r>   20.7089    0.0000 </r>
       <r>   21.0536    0.0000 </r>
       <r>   22.1244    0.0000 </r>
       <r>   22.2686    0.0000 </r>
       <r>   24.1247    0.0000 </r>
       <r>   25.4667    0.0000 </r>
       <r>   25.8153    0.0000 </r>
       <r>   25.9274    0.0000 </r>
       <r>   26.2500    0.0000 </r>
       <r>   28.8957    0.0000 </r>
       <r>   29.6826    0.0000 </r>
       <r>   29.7968    0.0000 </r>
       <r>   31.7400    0.0000 </r>
       <r>   31.8491    0.0000 </r>
       <r>   32.1981    0.0000 </r>
       <r>   36.8306    0.0000 </r>
       <r>   37.2762    0.0000 </r>
       <r>   37.3234    0.0000 </r>
       <r>   37.6515    0.0000 </r>
       <r>   37.9560    0.0000 </r>
       <r>   38.4475    0.0000 </r>
       <r>   41.4428    0.0000 </r>
       <r>   41.7783    0.0000 </r>
       <r>   43.0102    0.0000 </r>
       <r>   45.0602    0.0000 </r>
       <r>   45.5173    0.0000 </r>
       <r>   47.3405    0.0000 </r>
       <r>   47.8216    0.0000 </r>
       <r>   48.6108    0.0000 </r>
       <r>   49.1050    0.0000 </r>
       <r>   50.4207    0.0000 </r>
       <r>   50.4686    0.0000 </r>
       <r>   51.0649    0.0000 </r>
       <r>   51.2670    0.0000 </r>
       <r>   52.5600    0.0000 </r>
       <r>   53.1623    0.0000 </r>
       <r>   53.7004    0.0000 </r>
       <r>   54.7909    0.0000 </r>
       <r>   55.2188    0.0000 </r>
       <r>   56.0267    0.0000 </r>
       <r>   56.0568    0.0000 </r>
       <r>   57.7104    0.0000 </r>
       <r>   58.2983    0.0000 </r>
      </set>
      <set comment="kpoint 13">
       <r>   -5.0516    1.0000 </r>
       <r>   -5.0516    1.0000 </r>
       <r>    0.7580    1.0000 </r>
       <r>    0.7580    1.0000 </r>
       <r>    4.6050   -0.0000 </r>
       <r>    4.6050   -0.0000 </r>
       <r>   13.4802    0.0000 </r>
       <r>   13.4802    0.0000 </r>
       <r>   15.6223    0.0000 </r>
       <r>   15.6223    0.0000 </r>
       <r>   16.4563    0.0000 </r>
       <r>   16.4563    0.0000 </r>
       <r>   17.3367    0.0000 </r>
       <r>   17.3367    0.0000 </r>
       <r>   22.8683    0.0000 </r>
       <r>   22.8683    0.0000 </r>
       <r>   22.8809    0.0000 </r>
       <r>   22.8809    0.0000 </r>
       <r>   22.8985    0.0000 </r>
       <r>   22.8985    0.0000 </r>
       <r>   23.5743    0.0000 </r>
       <r>   23.5743    0.0000 </r>
       <r>   30.8184    0.0000 </r>
       <r>   30.8184    0.0000 </r>
       <r>   32.2627    0.0000 </r>
       <r>   32.2627    0.0000 </r>
       <r>   35.7307    0.0000 </r>
       <r>   35.7307    0.0000 </r>
       <r>   36.4406    0.0000 </r>
       <r>   36.4406    0.0000 </r>
       <r>   38.5373    0.0000 </r>
       <r>   38.5373    0.0000 </r>
       <r>   38.7625    0.0000 </r>
       <r>   38.7625    0.0000 </r>
       <r>   40.0781    0.0000 </r>
       <r>   40.0781    0.0000 </r>
       <r>   42.5034    0.0000 </r>
       <r>   42.5034    0.0000 </r>
       <r>   42.9100    0.0000 </r>
       <r>   42.9100    0.0000 </r>
       <r>   46.9745    0.0000 </r>
       <r>   46.9745    0.0000 </r>
       <r>   49.8297    0.0000 </r>
       <r>   49.8299    0.0000 </r>
       <r>   50.2940    0.0000 </r>
       <r>   50.2942    0.0000 </r>
       <r>   55.0905    0.0000 </r>
       <r>   55.0988    0.0000 </r>
       <r>   55.9321    0.0000 </r>
       <r>   55.9975    0.0000 </r>
       <r>   56.9398    0.0000 </r>
       <r>   56.9903    0.0000 </r>
       <r>   57.1655    0.0000 </r>
       <r>   57.3911    0.0000 </r>
       <r>   57.9772    0.0000 </r>
       <r>   58.1382    0.0000 </r>
      </set>
      <set comment="kpoint 14">
       <r>   -6.8419    1.0000 </r>
       <r>   -2.8982    1.0000 </r>
       <r>    0.1238    1.0000 </r>
       <r>    1.3975    1.0000 </r>
       <r>    6.6782    0.0000 </r>
       <r>    7.1283    0.0000 </r>
       <r>    8.2198    0.0000 </r>
       <r>   11.0113    0.0000 </r>
       <r>   13.1234    0.0000 </r>
       <r>   13.8265    0.0000 </r>
       <r>   16.3106    0.0000 </r>
       <r>   16.9437    0.0000 </r>
       <r>   17.5573    0.0000 </r>
       <r>   19.6089    0.0000 </r>
       <r>   20.0378    0.0000 </r>
       <r>   21.7203    0.0000 </r>
       <r>   23.2681    0.0000 </r>
       <r>   25.0644    0.0000 </r>
       <r>   25.1339    0.0000 </r>
       <r>   25.9452    0.0000 </r>
       <r>   26.9413    0.0000 </r>
       <r>   27.9076    0.0000 </r>
       <r>   29.0613    0.0000 </r>
       <r>   30.6099    0.0000 </r>
       <r>   30.9450    0.0000 </r>
       <r>   32.4219    0.0000 </r>
       <r>   33.5062    0.0000 </r>
       <r>   34.2689    0.0000 </r>
       <r>   34.8157    0.0000 </r>
       <r>   35.8738    0.0000 </r>
       <r>   36.3387    0.0000 </r>
       <r>   38.3534    0.0000 </r>
       <r>   39.4187    0.0000 </r>
       <r>   40.1186    0.0000 </r>
       <r>   41.6162    0.0000 </r>
       <r>   42.0895    0.0000 </r>
       <r>   43.4525    0.0000 </r>
       <r>   44.3139    0.0000 </r>
       <r>   44.5174    0.0000 </r>
       <r>   44.6059    0.0000 </r>
       <r>   46.3109    0.0000 </r>
       <r>   46.4313    0.0000 </r>
       <r>   46.9986    0.0000 </r>
       <r>   49.2132    0.0000 </r>
       <r>   49.5137    0.0000 </r>
       <r>   50.6878    0.0000 </r>
       <r>   51.3420    0.0000 </r>
       <r>   52.4830    0.0000 </r>
       <r>   53.3346    0.0000 </r>
       <r>   55.3036    0.0000 </r>
       <r>   55.3757    0.0000 </r>
       <r>   55.6850    0.0000 </r>
       <r>   57.1972    0.0000 </r>
       <r>   57.2463    0.0000 </r>
       <r>   57.8225    0.0000 </r>
       <r>   59.3928    0.0000 </r>
      </set>
      <set comment="kpoint 15">
       <r>   -5.9597    1.0000 </r>
       <r>   -4.0206    1.0000 </r>
       <r>   -0.3341    1.0000 </r>
       <r>    0.9513    1.0000 </r>
       <r>    6.9472    0.0000 </r>
       <r>    7.4899    0.0000 </r>
       <r>    9.9945    0.0000 </r>
       <r>   10.0019    0.0000 </r>
       <r>   11.9301    0.0000 </r>
       <r>   15.6491    0.0000 </r>
       <r>   15.7059    0.0000 </r>
       <r>   16.4374    0.0000 </r>
       <r>   20.0480    0.0000 </r>
       <r>   20.5465    0.0000 </r>
       <r>   21.2196    0.0000 </r>
       <r>   21.9647    0.0000 </r>
       <r>   22.2978    0.0000 </r>
       <r>   24.6403    0.0000 </r>
       <r>   25.1012    0.0000 </r>
       <r>   25.6448    0.0000 </r>
       <r>   25.9381    0.0000 </r>
       <r>   27.9059    0.0000 </r>
       <r>   28.2490    0.0000 </r>
       <r>   28.8402    0.0000 </r>
       <r>   30.2246    0.0000 </r>
       <r>   31.6906    0.0000 </r>
       <r>   32.9089    0.0000 </r>
       <r>   33.3271    0.0000 </r>
       <r>   33.5368    0.0000 </r>
       <r>   34.4369    0.0000 </r>
       <r>   36.4576    0.0000 </r>
       <r>   38.4412    0.0000 </r>
       <r>   40.7516    0.0000 </r>
       <r>   41.4998    0.0000 </r>
       <r>   41.9393    0.0000 </r>
       <r>   42.7943    0.0000 </r>
       <r>   43.3404    0.0000 </r>
       <r>   43.8689    0.0000 </r>
       <r>   45.0436    0.0000 </r>
       <r>   45.5246    0.0000 </r>
       <r>   46.0162    0.0000 </r>
       <r>   47.8749    0.0000 </r>
       <r>   48.9300    0.0000 </r>
       <r>   49.5719    0.0000 </r>
       <r>   50.6633    0.0000 </r>
       <r>   51.6677    0.0000 </r>
       <r>   52.3491    0.0000 </r>
       <r>   52.4209    0.0000 </r>
       <r>   54.3444    0.0000 </r>
       <r>   54.6487    0.0000 </r>
       <r>   55.0107    0.0000 </r>
       <r>   55.6271    0.0000 </r>
       <r>   56.1723    0.0000 </r>
       <r>   56.5844    0.0000 </r>
       <r>   57.2198    0.0000 </r>
       <r>   58.2242    0.0000 </r>
      </set>
      <set comment="kpoint 16">
       <r>   -4.9759    1.0000 </r>
       <r>   -4.9759    1.0000 </r>
       <r>    0.0827    1.0000 </r>
       <r>    0.0827    1.0000 </r>
       <r>    6.5846    0.0000 </r>
       <r>    6.5846    0.0000 </r>
       <r>   10.4890    0.0000 </r>
       <r>   10.4890    0.0000 </r>
       <r>   14.9133    0.0000 </r>
       <r>   14.9133    0.0000 </r>
       <r>   16.7430    0.0000 </r>
       <r>   16.7430    0.0000 </r>
       <r>   20.3923    0.0000 </r>
       <r>   20.3923    0.0000 </r>
       <r>   20.9456    0.0000 </r>
       <r>   20.9456    0.0000 </r>
       <r>   21.9404    0.0000 </r>
       <r>   21.9404    0.0000 </r>
       <r>   25.7015    0.0000 </r>
       <r>   25.7015    0.0000 </r>
       <r>   26.7991    0.0000 </r>
       <r>   26.7991    0.0000 </r>
       <r>   27.2481    0.0000 </r>
       <r>   27.2481    0.0000 </r>
       <r>   31.4172    0.0000 </r>
       <r>   31.4172    0.0000 </r>
       <r>   33.0319    0.0000 </r>
       <r>   33.0319    0.0000 </r>
       <r>   35.8477    0.0000 </r>
       <r>   35.8477    0.0000 </r>
       <r>   38.7004    0.0000 </r>
       <r>   38.7004    0.0000 </r>
       <r>   38.8304    0.0000 </r>
       <r>   38.8304    0.0000 </r>
       <r>   42.2204    0.0000 </r>
       <r>   42.2204    0.0000 </r>
       <r>   44.2559    0.0000 </r>
       <r>   44.2559    0.0000 </r>
       <r>   44.3355    0.0000 </r>
       <r>   44.3355    0.0000 </r>
       <r>   48.2389    0.0000 </r>
       <r>   48.2389    0.0000 </r>
       <r>   49.5286    0.0000 </r>
       <r>   49.5286    0.0000 </r>
       <r>   50.7354    0.0000 </r>
       <r>   50.7355    0.0000 </r>
       <r>   51.0943    0.0000 </r>
       <r>   51.0944    0.0000 </r>
       <r>   53.8090    0.0000 </r>
       <r>   53.8094    0.0000 </r>
       <r>   56.5156    0.0000 </r>
       <r>   56.5242    0.0000 </r>
       <r>   57.5912    0.0000 </r>
       <r>   57.6022    0.0000 </r>
       <r>   58.2615    0.0000 </r>
       <r>   58.3128    0.0000 </r>
      </set>
     </set>
    </set>
   </array>
  </eigenvalues>
  <separator name="orbital magnetization" >
   <v name="MAGDIPOLOUT">      0.00000000      0.00000000      0.00000000</v>
  </separator>
  <dos>
   <i name="efermi">      4.05509339 </i>
   <total>
    <array>
     <dimension dim="1">gridpoints</dimension>
     <dimension dim="2">spin</dimension>
     <field>energy</field>
     <field>total</field>
     <field>integrated</field>
     <set>
      <set comment="spin 1">
       <r>   -12.4318     0.0000     0.0000 </r>
       <r>   -12.1791     0.0000     0.0000 </r>
       <r>   -11.9265     0.0000     0.0000 </r>
       <r>   -11.6739     0.0000     0.0000 </r>
       <r>   -11.4212     0.0000     0.0000 </r>
       <r>   -11.1686     0.0000     0.0000 </r>
       <r>   -10.9160     0.0000     0.0000 </r>
       <r>   -10.6633     0.0000     0.0000 </r>
       <r>   -10.4107     0.0000     0.0000 </r>
       <r>   -10.1581     0.0000     0.0000 </r>
       <r>    -9.9055     0.0000     0.0000 </r>
       <r>    -9.6528     0.0000     0.0000 </r>
       <r>    -9.4002    -0.0000    -0.0000 </r>
       <r>    -9.1476    -0.0000    -0.0000 </r>
       <r>    -8.8949     0.0371     0.0094 </r>
       <r>    -8.6423     0.1688     0.0520 </r>
       <r>    -8.3897     0.3439     0.1389 </r>
       <r>    -8.1370     0.0003     0.1390 </r>
       <r>    -7.8844     0.4377     0.2496 </r>
       <r>    -7.6318     1.1838     0.5486 </r>
       <r>    -7.3792    -0.0092     0.5463 </r>
       <r>    -7.1265     0.2175     0.6013 </r>
       <r>    -6.8739     1.0035     0.8548 </r>
       <r>    -6.6213     1.8104     1.3121 </r>
       <r>    -6.3686    -0.0259     1.3056 </r>
       <r>    -6.1160     0.2385     1.3658 </r>
       <r>    -5.8634     1.9726     1.8642 </r>
       <r>    -5.6107    -0.0121     1.8611 </r>
       <r>    -5.3581    -0.0000     1.8611 </r>
       <r>    -5.1055    -0.0076     1.8592 </r>
       <r>    -4.8529     1.1083     2.1392 </r>
       <r>    -4.6002    -0.0012     2.1389 </r>
       <r>    -4.3476    -0.0000     2.1389 </r>
       <r>    -4.0950    -0.0270     2.1321 </r>
       <r>    -3.8423     1.7285     2.5688 </r>
       <r>    -3.5897     0.7550     2.7595 </r>
       <r>    -3.3371     0.7687     2.9537 </r>
       <r>    -3.0844    -0.0292     2.9463 </r>
       <r>    -2.8318     1.8184     3.4057 </r>
       <r>    -2.5792    -0.0300     3.3981 </r>
       <r>    -2.3266     0.0760     3.4174 </r>
       <r>    -2.0739     0.4371     3.5278 </r>
       <r>    -1.8213    -0.0000     3.5278 </r>
       <r>    -1.5687     0.0846     3.5492 </r>
       <r>    -1.3160     0.7950     3.7500 </r>
       <r>    -1.0634    -0.0000     3.7500 </r>
       <r>    -0.8108     0.3135     3.8292 </r>
       <r>    -0.5581     0.5714     3.9736 </r>
       <r>    -0.3055     0.7923     4.1737 </r>
       <r>    -0.0529     0.0809     4.1942 </r>
       <r>     0.1997     2.6668     4.8679 </r>
       <r>     0.4524    -0.0577     4.8533 </r>
       <r>     0.7050     1.0943     5.1297 </r>
       <r>     0.9576     1.9598     5.6248 </r>
       <r>     1.2103     1.2796     5.9481 </r>
       <r>     1.4629     1.7195     6.3825 </r>
       <r>     1.7155     1.3082     6.7130 </r>
       <r>     1.9682     1.5727     7.1103 </r>
       <r>     2.2208     0.1865     7.1574 </r>
       <r>     2.4734     1.0897     7.4327 </r>
       <r>     2.7260     1.0117     7.6883 </r>
       <r>     2.9787     0.0977     7.7130 </r>
       <r>     3.2313     0.4413     7.8245 </r>
       <r>     3.4839     0.5858     7.9724 </r>
       <r>     3.7366    -0.0009     7.9722 </r>
       <r>     3.9892     0.1108     8.0002 </r>
       <r>     4.2418     0.1807     8.0459 </r>
       <r>     4.4945     0.3310     8.1295 </r>
       <r>     4.7471     0.4037     8.2315 </r>
       <r>     4.9997     1.1880     8.5316 </r>
       <r>     5.2523    -0.0308     8.5238 </r>
       <r>     5.5050     0.8661     8.7426 </r>
       <r>     5.7576     2.4688     9.3663 </r>
       <r>     6.0102     0.6394     9.5279 </r>
       <r>     6.2629    -0.0003     9.5278 </r>
       <r>     6.5155     0.1160     9.5571 </r>
       <r>     6.7681     2.8646    10.2808 </r>
       <r>     7.0208     0.9303    10.5158 </r>
       <r>     7.2734     2.2835    11.0927 </r>
       <r>     7.5260     1.2948    11.4198 </r>
       <r>     7.7786     2.2437    11.9866 </r>
       <r>     8.0313     0.8653    12.2052 </r>
       <r>     8.2839     1.2188    12.5131 </r>
       <r>     8.5365     1.2676    12.8333 </r>
       <r>     8.7892     0.1555    12.8726 </r>
       <r>     9.0418     1.8101    13.3299 </r>
       <r>     9.2944     1.1158    13.6118 </r>
       <r>     9.5471    -0.0028    13.6111 </r>
       <r>     9.7997     0.4416    13.7227 </r>
       <r>    10.0523     1.8108    14.1801 </r>
       <r>    10.3049     0.3464    14.2676 </r>
       <r>    10.5576     2.3032    14.8495 </r>
       <r>    10.8102     1.0736    15.1207 </r>
       <r>    11.0628     2.4041    15.7280 </r>
       <r>    11.3155     1.1273    16.0128 </r>
       <r>    11.5681     0.8575    16.2295 </r>
       <r>    11.8207     0.6061    16.3826 </r>
       <r>    12.0734     0.8323    16.5928 </r>
       <r>    12.3260     1.5628    16.9877 </r>
       <r>    12.5786     1.2576    17.3054 </r>
       <r>    12.8312     1.0445    17.5693 </r>
       <r>    13.0839     1.0052    17.8232 </r>
       <r>    13.3365     2.5548    18.4686 </r>
       <r>    13.5891     0.3526    18.5577 </r>
       <r>    13.8418     1.7336    18.9956 </r>
       <r>    14.0944     1.3231    19.3299 </r>
       <r>    14.3470     0.5983    19.4810 </r>
       <r>    14.5997     0.4170    19.5864 </r>
       <r>    14.8523     0.1384    19.6213 </r>
       <r>    15.1049     4.0097    20.6343 </r>
       <r>    15.3575     0.1027    20.6602 </r>
       <r>    15.6102     1.8587    21.1298 </r>
       <r>    15.8628     2.9883    21.8847 </r>
       <r>    16.1154     2.0785    22.4098 </r>
       <r>    16.3681     0.9593    22.6522 </r>
       <r>    16.6207     2.1743    23.2015 </r>
       <r>    16.8733     2.0108    23.7095 </r>
       <r>    17.1260     1.8831    24.1852 </r>
       <r>    17.3786     1.1092    24.4654 </r>
       <r>    17.6312     1.3346    24.8025 </r>
       <r>    17.8838     1.3413    25.1414 </r>
       <r>    18.1365    -0.0290    25.1341 </r>
       <r>    18.3891     2.2523    25.7031 </r>
       <r>    18.6417    -0.0341    25.6944 </r>
       <r>    18.8944     0.2237    25.7510 </r>
       <r>    19.1470    -0.0039    25.7500 </r>
       <r>    19.3996     1.3951    26.1024 </r>
       <r>    19.6523     2.2635    26.6742 </r>
       <r>    19.9049     1.7706    27.1215 </r>
       <r>    20.1575     5.7219    28.5670 </r>
       <r>    20.4101     0.9721    28.8126 </r>
       <r>    20.6628     1.5553    29.2055 </r>
       <r>    20.9154     1.5466    29.5963 </r>
       <r>    21.1680     1.6845    30.0218 </r>
       <r>    21.4207     1.3615    30.3658 </r>
       <r>    21.6733     1.8075    30.8224 </r>
       <r>    21.9259     1.9079    31.3044 </r>
       <r>    22.1786     2.8828    32.0327 </r>
       <r>    22.4312     1.2833    32.3569 </r>
       <r>    22.6838     1.4319    32.7186 </r>
       <r>    22.9364     0.7185    32.9001 </r>
       <r>    23.1891     0.8512    33.1151 </r>
       <r>    23.4417     0.9002    33.3426 </r>
       <r>    23.6943     1.4548    33.7101 </r>
       <r>    23.9470     1.0765    33.9820 </r>
       <r>    24.1996     2.7922    34.6874 </r>
       <r>    24.4522     1.0281    34.9472 </r>
       <r>    24.7049     2.6929    35.6275 </r>
       <r>    24.9575     1.0734    35.8986 </r>
       <r>    25.2101     3.5445    36.7941 </r>
       <r>    25.4627     1.0538    37.0603 </r>
       <r>    25.7154     3.4647    37.9356 </r>
       <r>    25.9680     2.6468    38.6043 </r>
       <r>    26.2206     1.8093    39.0613 </r>
       <r>    26.4733     3.3310    39.9029 </r>
       <r>    26.7259     2.0928    40.4316 </r>
       <r>    26.9785     1.9846    40.9329 </r>
       <r>    27.2312     0.8715    41.1531 </r>
       <r>    27.4838     0.7913    41.3530 </r>
       <r>    27.7364     1.8646    41.8241 </r>
       <r>    27.9890     1.7962    42.2778 </r>
       <r>    28.2417     0.3925    42.3770 </r>
       <r>    28.4943     0.7715    42.5719 </r>
       <r>    28.7469     1.5405    42.9611 </r>
       <r>    28.9996     1.6659    43.3819 </r>
       <r>    29.2522     2.5349    44.0223 </r>
       <r>    29.5048     2.4977    44.6533 </r>
       <r>    29.7575     1.2080    44.9585 </r>
       <r>    30.0101     0.5710    45.1027 </r>
       <r>    30.2627     3.2229    45.9169 </r>
       <r>    30.5153     2.6556    46.5878 </r>
       <r>    30.7680     3.9639    47.5892 </r>
       <r>    31.0206     2.3194    48.1752 </r>
       <r>    31.2732     1.3983    48.5284 </r>
       <r>    31.5259     4.1535    49.5777 </r>
       <r>    31.7785     2.3676    50.1758 </r>
       <r>    32.0311     2.3837    50.7780 </r>
       <r>    32.2838     2.4092    51.3867 </r>
       <r>    32.5364     1.7668    51.8330 </r>
       <r>    32.7890     0.4576    51.9486 </r>
       <r>    33.0416     2.5739    52.5988 </r>
       <r>    33.2943     1.0396    52.8615 </r>
       <r>    33.5469     3.1821    53.6654 </r>
       <r>    33.7995     0.4357    53.7754 </r>
       <r>    34.0522     2.0492    54.2931 </r>
       <r>    34.3048     0.8618    54.5109 </r>
       <r>    34.5574     0.9114    54.7411 </r>
       <r>    34.8101     1.7938    55.1943 </r>
       <r>    35.0627     3.7519    56.1421 </r>
       <r>    35.3153     1.5410    56.5314 </r>
       <r>    35.5679     1.2447    56.8459 </r>
       <r>    35.8206     2.6567    57.5170 </r>
       <r>    36.0732     3.1403    58.3104 </r>
       <r>    36.3258     2.5178    58.9464 </r>
       <r>    36.5785     5.0525    60.2229 </r>
       <r>    36.8311     1.7969    60.6768 </r>
       <r>    37.0837     0.7256    60.8601 </r>
       <r>    37.3364     1.1555    61.1520 </r>
       <r>    37.5890     2.3437    61.7441 </r>
       <r>    37.8416     1.6118    62.1513 </r>
       <r>    38.0942     2.2513    62.7200 </r>
       <r>    38.3469     2.5264    63.3583 </r>
       <r>    38.5995     3.7558    64.3071 </r>
       <r>    38.8521     2.2365    64.8721 </r>
       <r>    39.1048     2.3592    65.4681 </r>
       <r>    39.3574     1.6913    65.8953 </r>
       <r>    39.6100     2.2469    66.4630 </r>
       <r>    39.8627     1.9051    66.9442 </r>
       <r>    40.1153     3.0751    67.7211 </r>
       <r>    40.3679     1.3847    68.0709 </r>
       <r>    40.6205     1.2204    68.3792 </r>
       <r>    40.8732     1.8448    68.8453 </r>
       <r>    41.1258     0.0259    68.8518 </r>
       <r>    41.3784     1.0997    69.1297 </r>
       <r>    41.6311     2.7417    69.8223 </r>
       <r>    41.8837     3.5661    70.7232 </r>
       <r>    42.1363     4.3959    71.8337 </r>
       <r>    42.3890     0.8455    72.0473 </r>
       <r>    42.6416     2.9844    72.8013 </r>
       <r>    42.8942     2.3404    73.3925 </r>
       <r>    43.1468     2.9388    74.1350 </r>
       <r>    43.3995     1.3338    74.4719 </r>
       <r>    43.6521     2.8871    75.2013 </r>
       <r>    43.9047     2.9849    75.9554 </r>
       <r>    44.1574     0.1221    75.9862 </r>
       <r>    44.4100     3.9097    76.9739 </r>
       <r>    44.6626     2.8001    77.6813 </r>
       <r>    44.9153     4.1381    78.7267 </r>
       <r>    45.1679     2.2638    79.2986 </r>
       <r>    45.4205     0.4165    79.4038 </r>
       <r>    45.6731     2.5059    80.0369 </r>
       <r>    45.9258     3.0604    80.8100 </r>
       <r>    46.1784     1.6600    81.2294 </r>
       <r>    46.4310     2.9384    81.9717 </r>
       <r>    46.6837     1.3581    82.3148 </r>
       <r>    46.9363     0.2406    82.3756 </r>
       <r>    47.1889     3.7008    83.3105 </r>
       <r>    47.4415     0.7371    83.4968 </r>
       <r>    47.6942     1.6503    83.9137 </r>
       <r>    47.9468     2.8952    84.6451 </r>
       <r>    48.1994     2.6337    85.3104 </r>
       <r>    48.4521     3.6275    86.2269 </r>
       <r>    48.7047     2.4857    86.8548 </r>
       <r>    48.9573     2.4018    87.4616 </r>
       <r>    49.2100     3.4217    88.3260 </r>
       <r>    49.4626     1.0259    88.5852 </r>
       <r>    49.7152     2.9727    89.3362 </r>
       <r>    49.9678     3.7492    90.2833 </r>
       <r>    50.2205     1.2096    90.5889 </r>
       <r>    50.4731     1.7214    91.0238 </r>
       <r>    50.7257     3.0693    91.7992 </r>
       <r>    50.9784     2.6426    92.4668 </r>
       <r>    51.2310     3.5902    93.3738 </r>
       <r>    51.4836     2.5987    94.0303 </r>
       <r>    51.7363     2.8192    94.7425 </r>
       <r>    51.9889     0.3177    94.8228 </r>
       <r>    52.2415     0.9826    95.0710 </r>
       <r>    52.4941     4.0601    96.0967 </r>
       <r>    52.7468     1.5402    96.4858 </r>
       <r>    52.9994     2.1350    97.0252 </r>
       <r>    53.2520     4.2951    98.1102 </r>
       <r>    53.5047     0.9365    98.3468 </r>
       <r>    53.7573     2.2408    98.9129 </r>
       <r>    54.0099     2.5270    99.5513 </r>
       <r>    54.2626     1.6263    99.9622 </r>
       <r>    54.5152     2.5680   100.6109 </r>
       <r>    54.7678     1.9915   101.1140 </r>
       <r>    55.0204     1.0767   101.3861 </r>
       <r>    55.2731     1.0358   101.6477 </r>
       <r>    55.5257     3.8321   102.6158 </r>
       <r>    55.7783     2.3380   103.2065 </r>
       <r>    56.0310     2.6419   103.8739 </r>
       <r>    56.2836     3.4149   104.7365 </r>
       <r>    56.5362     3.0178   105.4989 </r>
       <r>    56.7889     1.2965   105.8264 </r>
       <r>    57.0415     1.6333   106.2391 </r>
       <r>    57.2941     5.2478   107.5648 </r>
       <r>    57.5467     1.7336   108.0028 </r>
       <r>    57.7994     2.9061   108.7369 </r>
       <r>    58.0520     2.1394   109.2774 </r>
       <r>    58.3046     3.8711   110.2554 </r>
       <r>    58.5573     2.2939   110.8349 </r>
       <r>    58.8099     0.8438   111.0481 </r>
       <r>    59.0625     0.9055   111.2768 </r>
       <r>    59.3152     0.8473   111.4909 </r>
       <r>    59.5678     1.7955   111.9444 </r>
       <r>    59.8204    -0.0029   111.9437 </r>
       <r>    60.0730     0.2228   112.0000 </r>
       <r>    60.3257     0.0000   112.0000 </r>
       <r>    60.5783     0.0000   112.0000 </r>
       <r>    60.8309     0.0000   112.0000 </r>
       <r>    61.0836     0.0000   112.0000 </r>
       <r>    61.3362     0.0000   112.0000 </r>
       <r>    61.5888     0.0000   112.0000 </r>
       <r>    61.8415     0.0000   112.0000 </r>
       <r>    62.0941     0.0000   112.0000 </r>
       <r>    62.3467     0.0000   112.0000 </r>
       <r>    62.5993     0.0000   112.0000 </r>
       <r>    62.8520     0.0000   112.0000 </r>
       <r>    63.1046     0.0000   112.0000 </r>
       <r>    63.3572     0.0000   112.0000 </r>
      </set>
     </set>
    </array>
   </total>
  </dos>
 </calculation>
 <structure name="finalpos" >
  <crystal>
   <varray name="basis" >
    <v>       0.00000000       2.81650000       2.81650000 </v>
    <v>       2.81650000       0.00000000       2.81650000 </v>
    <v>       2.81650000       2.81650000       0.00000000 </v>
   </varray>
   <i name="volume">     44.68474278 </i>
   <varray name="rec_basis" >
    <v>      -0.17752530       0.17752530       0.17752530 </v>
    <v>       0.17752530      -0.17752530       0.17752530 </v>
    <v>       0.17752530       0.17752530      -0.17752530 </v>
   </varray>
  </crystal>
  <varray name="positions" >
   <v>       0.00000000       0.00000000       0.00000000 </v>
   <v>       0.25000000       0.25000000       0.25000000 </v>
  </varray>
 </structure>
</modeling>
