 running on   56 total cores
 distrk:  each k-point on   56 cores,    1 groups
 distr:  one band on    1 cores,   56 groups
 using from now: INCAR     
 vasp.5.4.4.18Apr17-6-g9f103f2a35 (build Nov 08 2017 12:56:59) complex          
  
 POSCAR found type information on POSCAR  Ge
 POSCAR found :  1 types and       2 ions
 scaLAPACK will be used

 ----------------------------------------------------------------------------- 
|                                                                             |
|           W    W    AA    RRRRR   N    N  II  N    N   GGGG   !!!           |
|           W    W   A  A   R    R  NN   N  II  NN   N  G    G  !!!           |
|           W    W  A    A  R    R  N N  N  II  N N  N  G       !!!           |
|           W WW W  AAAAAA  RRRRR   N  N N  II  N  N N  G  GGG   !            |
|           WW  WW  A    A  R   R   N   NN  II  N   NN  G    G                |
|           W    W  A    A  R    R  N    N  II  N    N   GGGG   !!!           |
|                                                                             |
|      For optimal performance we recommend to set                            |
|        NCORE= 4 - approx SQRT( number of cores)                             |
|      NCORE specifies how many cores store one orbital (NPAR=cpu/NCORE).     |
|      This setting can  greatly improve the performance of VASP for DFT.     |
|      The default,   NCORE=1            might be grossly inefficient         |
|      on modern multi-core architectures or massively parallel machines.     |
|      Do your own testing !!!!                                               |
|      Unfortunately you need to use the default for GW and RPA calculations. |
|      (for HF NCORE is supported but not extensively tested yet)             |
|                                                                             |
 ----------------------------------------------------------------------------- 

 LDA part: xc-table for Pade appr. of Perdew
 POSCAR, INCAR and KPOINTS ok, starting setup
 FFT: planning ...
 WAVECAR not read
 entering main loop
       N       E                     dE             d eps       ncg     rms          ort
DAV:   1    -0.364329062095E+01   -0.36433E+01   -0.48470E+03   896   0.138E+02
DAV:   2    -0.104658207650E+02   -0.68225E+01   -0.68161E+01   896   0.127E+01
DAV:   3    -0.104962555061E+02   -0.30435E-01   -0.30434E-01   896   0.113E+00
DAV:   4    -0.104964858868E+02   -0.23038E-03   -0.23038E-03   896   0.902E-02
DAV:   5    -0.104964863710E+02   -0.48418E-06   -0.48447E-06   896   0.457E-03
 gam= 0.000 g(H,U,f)=  0.842E-02 0.350E-01 0.300E-14 ort(H,U,f) = 0.000E+00 0.000E+00 0.000E+00
SDA:   6    -0.102560748343E+02    0.24041E+00   -0.17364E-01   896   0.434E-01 0.000E+00
 gam= 0.382 g(H,U,f)=  0.287E-02 0.218E-01 0.826E-10 ort(H,U,f) = 0.495E-02 0.276E-01-0.738E-10
DMP:   7    -0.102712653635E+02   -0.15191E-01   -0.14843E-01   896   0.247E-01 0.326E-01
 gam= 0.382 g(H,U,f)=  0.357E-03 0.104E-01 0.671E-10 ort(H,U,f) = 0.159E-02 0.223E-01-0.442E-10
DMP:   8    -0.102834568610E+02   -0.12191E-01   -0.79365E-02   896   0.107E-01 0.239E-01
 gam= 0.382 g(H,U,f)=  0.714E-04 0.401E-02 0.109E-10 ort(H,U,f) =-0.102E-03 0.117E-01-0.742E-11
DMP:   9    -0.102897448180E+02   -0.62880E-02   -0.34101E-02   896   0.408E-02 0.116E-01
 gam= 0.382 g(H,U,f)=  0.148E-03 0.129E-02 0.569E-12 ort(H,U,f) =-0.107E-03 0.480E-02-0.159E-11
DMP:  10    -0.102923844340E+02   -0.26396E-02   -0.12934E-02   896   0.144E-02 0.469E-02
 gam= 0.382 g(H,U,f)=  0.986E-04 0.347E-03 0.132E-12 ort(H,U,f) = 0.719E-04 0.159E-02-0.756E-12
DMP:  11    -0.102933622188E+02   -0.97778E-03   -0.43258E-03   896   0.445E-03 0.167E-02
 gam= 0.382 g(H,U,f)=  0.290E-04 0.780E-04 0.265E-12 ort(H,U,f) = 0.624E-04 0.427E-03-0.617E-12
DMP:  12    -0.102936755069E+02   -0.31329E-03   -0.11751E-03   896   0.107E-03 0.489E-03
 gam= 0.382 g(H,U,f)=  0.390E-05 0.175E-04 0.320E-12 ort(H,U,f) = 0.136E-04 0.882E-04-0.109E-12
DMP:  13    -0.102937543882E+02   -0.78881E-04   -0.24123E-04   896   0.214E-04 0.102E-03
 final diagonalization
   1 F= -.10293754E+02 E0= -.10293768E+02  d E =0.402632E-04
 writing wavefunctions
