<?xml version="1.0" encoding="ISO-8859-1"?>
<modeling>
 <generator>
  <i name="program" type="string">vasp </i>
  <i name="version" type="string">5.4.4.18Apr17-6-g9f103f2a35  </i>
  <i name="subversion" type="string">(build Sep 10 2021 22:26:18) complex            parallel </i>
  <i name="platform" type="string">LinuxIFC </i>
  <i name="date" type="string">2022 02 18 </i>
  <i name="time" type="string">10:25:06 </i>
 </generator>
 <incar>
  <i type="int" name="ISTART">     0</i>
  <i type="string" name="PREC">n</i>
  <i type="string" name="ALGO"> D</i>
  <i type="int" name="ISPIN">     2</i>
  <i type="int" name="ICHARG">     2</i>
  <i name="ENCUT">    450.00000000</i>
  <i type="int" name="NBANDS">    54</i>
  <v name="MAGMOM">      0.00000000      0.00000000      0.00000000      0.00000000      0.00000000      0.00000000</v>
  <i name="SIGMA">      0.05000000</i>
  <i type="int" name="LMAXMIX">     2</i>
  <v type="int" name="KPOINT_BSE">    -1     0     0     0</v>
  <i type="string" name="GGA"> PE</i>
  <i type="logical" name="LDAU"> T  </i>
  <v type="int" name="LDAUL">     1</v>
  <v name="LDAUU">     -2.33100000</v>
  <v name="LDAUJ">      0.00000000</v>
 </incar>
 <structure name="primitive_cell" >
  <crystal>
   <varray name="basis" >
    <v>       0.00000000       2.81650000       2.81650000 </v>
    <v>       2.81650000       0.00000000       2.81650000 </v>
    <v>       2.81650000       2.81650000       0.00000000 </v>
   </varray>
   <i name="volume">     44.68474278 </i>
   <varray name="rec_basis" >
    <v>      -0.17752530       0.17752530       0.17752530 </v>
    <v>       0.17752530      -0.17752530       0.17752530 </v>
    <v>       0.17752530       0.17752530      -0.17752530 </v>
   </varray>
  </crystal>
  <varray name="positions" >
   <v>       0.00000000       0.00000000       0.00000000 </v>
   <v>       0.25000000       0.25000000       0.25000000 </v>
  </varray>
 </structure>
 <varray name="primitive_index" >
  <v type="int" >        1 </v>
  <v type="int" >        2 </v>
 </varray>
 <kpoints>
  <generation param="Gamma">
   <v type="int" name="divisions">       6        6        6 </v>
   <v name="usershift">      0.00000000       0.00000000       0.00000000 </v>
   <v name="genvec1">      0.16666667       0.00000000       0.00000000 </v>
   <v name="genvec2">      0.00000000       0.16666667       0.00000000 </v>
   <v name="genvec3">      0.00000000       0.00000000       0.16666667 </v>
   <v name="shift">      0.00000000       0.00000000       0.00000000 </v>
  </generation>
  <varray name="kpointlist" >
   <v>       0.00000000       0.00000000       0.00000000 </v>
   <v>       0.16666667       0.00000000       0.00000000 </v>
   <v>       0.33333333       0.00000000       0.00000000 </v>
   <v>       0.50000000       0.00000000       0.00000000 </v>
   <v>       0.16666667       0.16666667       0.00000000 </v>
   <v>       0.33333333       0.16666667       0.00000000 </v>
   <v>       0.50000000       0.16666667       0.00000000 </v>
   <v>      -0.33333333       0.16666667       0.00000000 </v>
   <v>      -0.16666667       0.16666667       0.00000000 </v>
   <v>       0.33333333       0.33333333       0.00000000 </v>
   <v>       0.50000000       0.33333333       0.00000000 </v>
   <v>      -0.33333333       0.33333333       0.00000000 </v>
   <v>       0.50000000       0.50000000       0.00000000 </v>
   <v>       0.50000000       0.33333333       0.16666667 </v>
   <v>      -0.33333333       0.33333333       0.16666667 </v>
   <v>      -0.33333333       0.50000000       0.16666667 </v>
  </varray>
  <varray name="weights" >
   <v>       0.00462963 </v>
   <v>       0.03703704 </v>
   <v>       0.03703704 </v>
   <v>       0.01851852 </v>
   <v>       0.02777778 </v>
   <v>       0.11111111 </v>
   <v>       0.11111111 </v>
   <v>       0.11111111 </v>
   <v>       0.05555556 </v>
   <v>       0.02777778 </v>
   <v>       0.11111111 </v>
   <v>       0.05555556 </v>
   <v>       0.01388889 </v>
   <v>       0.11111111 </v>
   <v>       0.11111111 </v>
   <v>       0.05555556 </v>
  </varray>
 </kpoints>
 <parameters>
  <separator name="general" >
   <i type="string" name="SYSTEM">unknown system</i>
   <i type="logical" name="LCOMPAT"> F  </i>
  </separator>
  <separator name="electronic" >
   <i type="string" name="PREC">n</i>
   <i name="ENMAX">    450.00000000</i>
   <i name="ENAUG">    385.84300000</i>
   <i name="EDIFF">      0.00010000</i>
   <i type="int" name="IALGO">    53</i>
   <i type="int" name="IWAVPR">    10</i>
   <i type="int" name="NBANDS">    54</i>
   <i name="NELECT">      8.00000000</i>
   <i type="int" name="TURBO">     0</i>
   <i type="int" name="IRESTART">     0</i>
   <i type="int" name="NREBOOT">     0</i>
   <i type="int" name="NMIN">     0</i>
   <i name="EREF">      0.00000000</i>
   <separator name="electronic smearing" >
    <i type="int" name="ISMEAR">     1</i>
    <i name="SIGMA">      0.05000000</i>
    <i name="KSPACING">      0.50000000</i>
    <i type="logical" name="KGAMMA"> T  </i>
   </separator>
   <separator name="electronic projectors" >
    <i type="logical" name="LREAL"> F  </i>
    <v name="ROPT">      0.00000000</v>
    <i type="int" name="LMAXPAW">  -100</i>
    <i type="int" name="LMAXMIX">     2</i>
    <i type="logical" name="NLSPLINE"> F  </i>
   </separator>
   <separator name="electronic startup" >
    <i type="int" name="ISTART">     0</i>
    <i type="int" name="ICHARG">     2</i>
    <i type="int" name="INIWAV">     1</i>
   </separator>
   <separator name="electronic spin" >
    <i type="int" name="ISPIN">     2</i>
    <i type="logical" name="LNONCOLLINEAR"> F  </i>
    <v name="MAGMOM">      0.00000000      0.00000000</v>
    <i name="NUPDOWN">     -1.00000000</i>
    <i type="logical" name="LSORBIT"> F  </i>
    <v name="SAXIS">      0.00000000      0.00000000      1.00000000</v>
    <i type="logical" name="LSPIRAL"> F  </i>
    <v name="QSPIRAL">      0.00000000      0.00000000      0.00000000</v>
    <i type="logical" name="LZEROZ"> F  </i>
   </separator>
   <separator name="electronic exchange-correlation" >
    <i type="logical" name="LASPH"> F  </i>
    <i type="logical" name="LMETAGGA"> F  </i>
   </separator>
   <separator name="electronic convergence" >
    <i type="int" name="NELM">    60</i>
    <i type="int" name="NELMDL">    -5</i>
    <i type="int" name="NELMIN">     2</i>
    <i name="ENINI">    450.00000000</i>
    <separator name="electronic convergence detail" >
     <i type="logical" name="LDIAG"> T  </i>
     <i type="logical" name="LSUBROT"> F  </i>
     <i name="WEIMIN">      0.00000000</i>
     <i name="EBREAK">      0.00000046</i>
     <i name="DEPER">      0.30000000</i>
     <i type="int" name="NRMM">     4</i>
     <i name="TIME">      0.40000000</i>
    </separator>
   </separator>
   <separator name="electronic mixer" >
    <i name="AMIX">      0.40000000</i>
    <i name="BMIX">      1.00000000</i>
    <i name="AMIN">      0.10000000</i>
    <i name="AMIX_MAG">      1.60000000</i>
    <i name="BMIX_MAG">      1.00000000</i>
    <separator name="electronic mixer details" >
     <i type="int" name="IMIX">     4</i>
     <i type="logical" name="MIXFIRST"> F  </i>
     <i type="int" name="MAXMIX">   -45</i>
     <i name="WC">    100.00000000</i>
     <i type="int" name="INIMIX">     1</i>
     <i type="int" name="MIXPRE">     1</i>
     <i type="int" name="MREMOVE">     5</i>
    </separator>
   </separator>
   <separator name="electronic dipolcorrection" >
    <i type="logical" name="LDIPOL"> F  </i>
    <i type="logical" name="LMONO"> F  </i>
    <i type="int" name="IDIPOL">     0</i>
    <i name="EPSILON">      1.00000000</i>
    <v name="DIPOL">   -100.00000000   -100.00000000   -100.00000000</v>
    <i name="EFIELD">      0.00000000</i>
   </separator>
  </separator>
  <separator name="grids" >
   <i type="int" name="NGX">    24</i>
   <i type="int" name="NGY">    24</i>
   <i type="int" name="NGZ">    24</i>
   <i type="int" name="NGXF">    48</i>
   <i type="int" name="NGYF">    48</i>
   <i type="int" name="NGZF">    48</i>
   <i type="logical" name="ADDGRID"> F  </i>
  </separator>
  <separator name="ionic" >
   <i type="int" name="NSW">     0</i>
   <i type="int" name="IBRION">    -1</i>
   <i type="int" name="MDALGO">     0</i>
   <i type="int" name="ISIF">     2</i>
   <i name="PSTRESS">      0.00000000</i>
   <i name="EDIFFG">      0.00100000</i>
   <i type="int" name="NFREE">     0</i>
   <i name="POTIM">      0.50000000</i>
   <i name="SMASS">     -3.00000000</i>
   <i name="SCALEE">      1.00000000</i>
  </separator>
  <separator name="ionic md" >
   <i name="TEBEG">      0.00010000</i>
   <i name="TEEND">      0.00010000</i>
   <i type="int" name="NBLOCK">     1</i>
   <i type="int" name="KBLOCK">     1</i>
   <i type="int" name="NPACO">   256</i>
   <i name="APACO">     16.00000000</i>
  </separator>
  <separator name="symmetry" >
   <i type="int" name="ISYM">     2</i>
   <i name="SYMPREC">      0.00001000</i>
  </separator>
  <separator name="dos" >
   <i type="int" name="LORBIT">     0</i>
   <v name="RWIGS">     -1.00000000</v>
   <i type="int" name="NEDOS">   301</i>
   <i name="EMIN">     10.00000000</i>
   <i name="EMAX">    -10.00000000</i>
   <i name="EFERMI">      0.00000000</i>
  </separator>
  <separator name="writing" >
   <i type="int" name="NWRITE">     2</i>
   <i type="logical" name="LWAVE"> T  </i>
   <i type="logical" name="LDOWNSAMPLE"> F  </i>
   <i type="logical" name="LCHARG"> T  </i>
   <i type="logical" name="LPARD"> F  </i>
   <i type="logical" name="LVTOT"> F  </i>
   <i type="logical" name="LVHAR"> F  </i>
   <i type="logical" name="LELF"> F  </i>
   <i type="logical" name="LOPTICS"> F  </i>
   <v name="STM">      0.00000000      0.00000000      0.00000000      0.00000000      0.00000000      0.00000000      0.00000000</v>
  </separator>
  <separator name="performance" >
   <i type="int" name="NPAR">     3</i>
   <i type="int" name="NSIM">     4</i>
   <i type="int" name="NBLK">    -1</i>
   <i type="logical" name="LPLANE"> T  </i>
   <i type="logical" name="LSCALAPACK"> T  </i>
   <i type="logical" name="LSCAAWARE"> F  </i>
   <i type="logical" name="LSCALU"> F  </i>
   <i type="logical" name="LASYNC"> F  </i>
   <i type="logical" name="LORBITALREAL"> F  </i>
  </separator>
  <separator name="miscellaneous" >
   <i type="int" name="IDIOT">     3</i>
   <i type="int" name="ISPECIAL">     0</i>
   <i type="logical" name="LMUSIC"> F  </i>
   <v name="POMASS">     72.61000000</v>
   <v name="DARWINR">      0.00000000</v>
   <v name="DARWINV">      1.00000000</v>
   <i type="logical" name="LCORR"> T  </i>
  </separator>
  <i type="logical" name="GGA_COMPAT"> T  </i>
  <i type="logical" name="LBERRY"> F  </i>
  <i type="int" name="ICORELEVEL">     0</i>
  <i type="logical" name="LDAU"> T  </i>
  <v type="int" name="LDAUTYPE">     2</v>
  <v type="int" name="LDAUL">     1</v>
  <v name="LDAUU">     -2.33100000</v>
  <v name="LDAUJ">      0.00000000</v>
  <i type="int" name="LDAUPRINT">     0</i>
  <i type="int" name="I_CONSTRAINED_M">     0</i>
  <separator name="electronic exchange-correlation" >
   <i type="string" name="GGA">PE</i>
   <i type="int" name="VOSKOWN">     0</i>
   <i type="logical" name="LHFCALC"> F  </i>
   <i type="string" name="PRECFOCK"></i>
   <i type="logical" name="LSYMGRAD"> F  </i>
   <i type="logical" name="LHFONE"> F  </i>
   <i type="logical" name="LRHFCALC"> F  </i>
   <i type="logical" name="LTHOMAS"> F  </i>
   <i type="logical" name="LMODELHF"> F  </i>
   <i name="ENCUT4O">     -1.00000000</i>
   <i type="int" name="EXXOEP">     0</i>
   <i type="int" name="FOURORBIT">     0</i>
   <i name="AEXX">      0.00000000</i>
   <i name="HFALPHA">      0.00000000</i>
   <i name="MCALPHA">      0.00000000</i>
   <i name="ALDAX">      1.00000000</i>
   <i name="AGGAX">      1.00000000</i>
   <i name="ALDAC">      1.00000000</i>
   <i name="AGGAC">      1.00000000</i>
   <i type="int" name="NKREDX">     1</i>
   <i type="int" name="NKREDY">     1</i>
   <i type="int" name="NKREDZ">     1</i>
   <i type="logical" name="SHIFTRED"> F  </i>
   <i type="logical" name="ODDONLY"> F  </i>
   <i type="logical" name="EVENONLY"> F  </i>
   <i type="int" name="LMAXFOCK">     0</i>
   <i type="int" name="NMAXFOCKAE">     0</i>
   <i type="logical" name="LFOCKAEDFT"> F  </i>
   <i name="HFSCREEN">      0.00000000</i>
   <i name="HFSCREENC">      0.00000000</i>
   <i type="int" name="NBANDSGWLOW">     0</i>
  </separator>
  <separator name="vdW DFT" >
   <i type="logical" name="LUSE_VDW"> F  </i>
   <i name="Zab_VDW">     -0.84910000</i>
   <i name="PARAM1">      0.12340000</i>
   <i name="PARAM2">      1.00000000</i>
   <i name="PARAM3">      0.00000000</i>
  </separator>
  <separator name="model GW" >
   <i type="int" name="MODEL_GW">     0</i>
   <i name="MODEL_EPS0">     13.40542284</i>
   <i name="MODEL_ALPHA">      1.00000000</i>
  </separator>
  <separator name="linear response parameters" >
   <i type="logical" name="LEPSILON"> F  </i>
   <i type="logical" name="LRPA"> F  </i>
   <i type="logical" name="LNABLA"> F  </i>
   <i type="logical" name="LVEL"> F  </i>
   <i type="int" name="KINTER">     0</i>
   <i name="CSHIFT">      0.10000000</i>
   <i name="OMEGAMAX">     -1.00000000</i>
   <i name="DEG_THRESHOLD">      0.00200000</i>
   <i name="RTIME">     -0.10000000</i>
   <i name="WPLASMAI">      0.00000000</i>
   <v name="DFIELD">      0.00000000      0.00000000      0.00000000</v>
   <v name="WPLASMA">      0.00000000      0.00000000      0.00000000      0.00000000      0.00000000      0.00000000      0.00000000      0.00000000      0.00000000</v>
  </separator>
  <separator name="orbital magnetization" >
   <i type="logical" name="NUCIND"> F  </i>
   <v name="MAGPOS">      0.00000000      0.00000000      0.00000000</v>
   <i type="logical" name="LNICSALL"> T  </i>
   <i type="logical" name="ORBITALMAG"> F  </i>
   <i type="logical" name="LMAGBLOCH"> F  </i>
   <i type="logical" name="LCHIMAG"> F  </i>
   <i type="logical" name="LGAUGE"> T  </i>
   <i type="int" name="MAGATOM">     0</i>
   <v name="MAGDIPOL">      0.00000000      0.00000000      0.00000000</v>
   <v name="AVECCONST">      0.00000000      0.00000000      0.00000000</v>
  </separator>
  <separator name="response functions" >
   <i type="logical" name="LADDER"> F  </i>
   <i type="logical" name="LRPAFORCE"> F  </i>
   <i type="logical" name="LFXC"> F  </i>
   <i type="logical" name="LHARTREE"> T  </i>
   <i type="int" name="IBSE">     0</i>
   <v type="int" name="KPOINT">    -1     0     0     0</v>
   <i type="logical" name="LTCTE"> F  </i>
   <i type="logical" name="LTETE"> F  </i>
   <i type="logical" name="LTRIPLET"> F  </i>
   <i type="logical" name="LFXCEPS"> F  </i>
   <i type="logical" name="LFXHEG"> F  </i>
   <i type="int" name="NATURALO">     2</i>
   <i type="logical" name="L2ORDER"> F  </i>
   <i type="logical" name="LMP2LT"> F  </i>
   <i type="logical" name="LUSEW"> F  </i>
   <i name="ENCUTGW">     -2.00000000</i>
   <i name="ENCUTGWSOFT">     -2.00000000</i>
   <i name="ENCUTLF">     -1.00000000</i>
   <i type="int" name="LMAXMP2">    -1</i>
   <i name="SCISSOR">      0.00000000</i>
   <i type="int" name="NOMEGA">     0</i>
   <i type="int" name="NOMEGAR">     0</i>
   <i type="int" name="NBANDSGW">    -1</i>
   <i type="int" name="NBANDSO">    -1</i>
   <i type="int" name="NBANDSV">    -1</i>
   <i type="int" name="NELM">     1</i>
   <i type="int" name="NELMHF">     1</i>
   <i type="int" name="DIM">     3</i>
   <i type="int" name="ANTIRES">     0</i>
   <i name="OMEGAMAX">    -30.00000000</i>
   <i name="OMEGAMIN">    -30.00000000</i>
   <i name="OMEGATL">   -200.00000000</i>
   <i type="int" name="OMEGAGRID">   140</i>
   <i name="CSHIFT">     -0.10000000</i>
   <i type="logical" name="SELFENERGY"> F  </i>
   <i type="logical" name="LSPECTRAL"> F  </i>
   <i type="logical" name="LSPECTRALGW"> F  </i>
   <i type="logical" name="LSINGLES"> F  </i>
   <i type="logical" name="LFERMIGW"> F  </i>
   <i type="logical" name="ODDONLYGW"> F  </i>
   <i type="logical" name="EVENONLYGW"> F  </i>
   <i type="int" name="NKREDLFX">     1</i>
   <i type="int" name="NKREDLFY">     1</i>
   <i type="int" name="NKREDLFZ">     1</i>
   <i type="int" name="MAXMEM">  2800</i>
   <i type="int" name="TELESCOPE">     0</i>
   <i type="int" name="TAUPAR">     1</i>
   <i type="int" name="OMEGAPAR">    -1</i>
   <i name="LAMBDA">      1.00000000</i>
  </separator>
  <separator name="External order field" >
   <i name="OFIELD_KAPPA">      0.00000000</i>
   <v name="OFIELD_K">      0.00000000      0.00000000      0.00000000</v>
   <i name="OFIELD_Q6_NEAR">      0.00000000</i>
   <i name="OFIELD_Q6_FAR">      0.00000000</i>
   <i name="OFIELD_A">      0.00000000</i>
  </separator>
 </parameters>
 <atominfo>
  <atoms>       2 </atoms>
  <types>       1 </types>
  <array name="atoms" >
   <dimension dim="1">ion</dimension>
   <field type="string">element</field>
   <field type="int">atomtype</field>
   <set>
    <rc><c>Ge</c><c>   1</c></rc>
    <rc><c>Ge</c><c>   1</c></rc>
   </set>
  </array>
  <array name="atomtypes" >
   <dimension dim="1">type</dimension>
   <field type="int">atomspertype</field>
   <field type="string">element</field>
   <field>mass</field>
   <field>valence</field>
   <field type="string">pseudopotential</field>
   <set>
    <rc><c>   2</c><c>Ge</c><c>     72.61000000</c><c>      4.00000000</c><c>  PAW_PBE Ge 05Jan2001                  </c></rc>
   </set>
  </array>
 </atominfo>
 <structure name="initialpos" >
  <crystal>
   <varray name="basis" >
    <v>       0.00000000       2.81650000       2.81650000 </v>
    <v>       2.81650000       0.00000000       2.81650000 </v>
    <v>       2.81650000       2.81650000       0.00000000 </v>
   </varray>
   <i name="volume">     44.68474278 </i>
   <varray name="rec_basis" >
    <v>      -0.17752530       0.17752530       0.17752530 </v>
    <v>       0.17752530      -0.17752530       0.17752530 </v>
    <v>       0.17752530       0.17752530      -0.17752530 </v>
   </varray>
  </crystal>
  <varray name="positions" >
   <v>       0.00000000       0.00000000       0.00000000 </v>
   <v>       0.25000000       0.25000000       0.25000000 </v>
  </varray>
 </structure>
 <calculation>
  <scstep>
   <time name="total">    0.30    0.30</time>
   <energy>
    <i name="alphaZ">     17.10940282 </i>
    <i name="ewald">   -220.32663596 </i>
    <i name="hartreedc">    -12.42928696 </i>
    <i name="XCdc">    -14.98288157 </i>
    <i name="pawpsdc">    176.29039040 </i>
    <i name="pawaedc">   -147.53796114 </i>
    <i name="eentropy">     -0.00085982 </i>
    <i name="bandstr">      0.55543139 </i>
    <i name="atom">    209.99145059 </i>
    <i name="e_fr_energy">      8.66904974 </i>
    <i name="e_wo_entrp">      8.66990956 </i>
    <i name="e_0_energy">      8.66933635 </i>
   </energy>
  </scstep>
  <scstep>
   <time name="total">    0.31    0.31</time>
   <energy>
    <i name="e_fr_energy">    -10.69116466 </i>
    <i name="e_wo_entrp">    -10.69117277 </i>
    <i name="e_0_energy">    -10.69116736 </i>
   </energy>
  </scstep>
  <scstep>
   <time name="total">    0.30    0.30</time>
   <energy>
    <i name="e_fr_energy">    -11.58760952 </i>
    <i name="e_wo_entrp">    -11.58765138 </i>
    <i name="e_0_energy">    -11.58762348 </i>
   </energy>
  </scstep>
  <scstep>
   <time name="total">    0.31    0.31</time>
   <energy>
    <i name="e_fr_energy">    -11.61465625 </i>
    <i name="e_wo_entrp">    -11.61469651 </i>
    <i name="e_0_energy">    -11.61466967 </i>
   </energy>
  </scstep>
  <scstep>
   <time name="total">    0.32    0.32</time>
   <energy>
    <i name="e_fr_energy">    -11.61556875 </i>
    <i name="e_wo_entrp">    -11.61560901 </i>
    <i name="e_0_energy">    -11.61558217 </i>
   </energy>
  </scstep>
  <scstep>
   <time name="total">    0.19    0.19</time>
   <energy>
    <i name="e_fr_energy">    -11.27363061 </i>
    <i name="e_wo_entrp">    -11.27367087 </i>
    <i name="e_0_energy">    -11.27364403 </i>
   </energy>
  </scstep>
  <scstep>
   <time name="total">    0.18    0.18</time>
   <energy>
    <i name="e_fr_energy">    -11.29404021 </i>
    <i name="e_wo_entrp">    -11.29408048 </i>
    <i name="e_0_energy">    -11.29405363 </i>
   </energy>
  </scstep>
  <scstep>
   <time name="total">    0.18    0.18</time>
   <energy>
    <i name="e_fr_energy">    -11.31003082 </i>
    <i name="e_wo_entrp">    -11.31007109 </i>
    <i name="e_0_energy">    -11.31004424 </i>
   </energy>
  </scstep>
  <scstep>
   <time name="total">    0.18    0.18</time>
   <energy>
    <i name="e_fr_energy">    -11.31806164 </i>
    <i name="e_wo_entrp">    -11.31810190 </i>
    <i name="e_0_energy">    -11.31807506 </i>
   </energy>
  </scstep>
  <scstep>
   <time name="total">    0.18    0.18</time>
   <energy>
    <i name="e_fr_energy">    -11.32141817 </i>
    <i name="e_wo_entrp">    -11.32145843 </i>
    <i name="e_0_energy">    -11.32143159 </i>
   </energy>
  </scstep>
  <scstep>
   <time name="total">    0.18    0.18</time>
   <energy>
    <i name="e_fr_energy">    -11.32270496 </i>
    <i name="e_wo_entrp">    -11.32274523 </i>
    <i name="e_0_energy">    -11.32271838 </i>
   </energy>
  </scstep>
  <scstep>
   <time name="total">    0.18    0.18</time>
   <energy>
    <i name="e_fr_energy">    -11.32314013 </i>
    <i name="e_wo_entrp">    -11.32318039 </i>
    <i name="e_0_energy">    -11.32315355 </i>
   </energy>
  </scstep>
  <scstep>
   <time name="total">    0.18    0.18</time>
   <energy>
    <i name="e_fr_energy">    -11.32325569 </i>
    <i name="e_wo_entrp">    -11.32329595 </i>
    <i name="e_0_energy">    -11.32326911 </i>
   </energy>
  </scstep>
  <scstep>
   <time name="total">    0.23    0.23</time>
   <energy>
    <i name="alphaZ">     17.10940282 </i>
    <i name="ewald">   -220.32663596 </i>
    <i name="hartreedc">    -15.89093111 </i>
    <i name="XCdc">    -14.30409516 </i>
    <i name="pawpsdc">    539.48031879 </i>
    <i name="pawaedc">   -511.62332579 </i>
    <i name="eentropy">      0.00004026 </i>
    <i name="bandstr">    -15.75950268 </i>
    <i name="atom">    209.99145059 </i>
    <i name="e_fr_energy">    -11.32327825 </i>
    <i name="e_wo_entrp">    -11.32331851 </i>
    <i name="e_0_energy">    -11.32329167 </i>
   </energy>
  </scstep>
  <structure>
   <crystal>
    <varray name="basis" >
     <v>       0.00000000       2.81650000       2.81650000 </v>
     <v>       2.81650000       0.00000000       2.81650000 </v>
     <v>       2.81650000       2.81650000       0.00000000 </v>
    </varray>
    <i name="volume">     44.68474278 </i>
    <varray name="rec_basis" >
     <v>      -0.17752530       0.17752530       0.17752530 </v>
     <v>       0.17752530      -0.17752530       0.17752530 </v>
     <v>       0.17752530       0.17752530      -0.17752530 </v>
    </varray>
   </crystal>
   <varray name="positions" >
    <v>       0.00000000       0.00000000       0.00000000 </v>
    <v>       0.25000000       0.25000000       0.25000000 </v>
   </varray>
  </structure>
  <varray name="forces" >
   <v>      -0.00000000      -0.00000000       0.00000000 </v>
   <v>       0.00000000       0.00000000      -0.00000000 </v>
  </varray>
  <varray name="stress" >
   <v>       4.38573176       0.00000000       0.00000000 </v>
   <v>      -0.00000000       4.38573176       0.00000000 </v>
   <v>       0.00000000      -0.00000000       4.38573176 </v>
  </varray>
  <energy>
   <i name="e_fr_energy">    -11.32327825 </i>
   <i name="e_wo_entrp">    -11.32329167 </i>
   <i name="e_0_energy">      0.00004026 </i>
  </energy>
  <time name="totalsc">    3.89    4.67</time>
  <eigenvalues>
   <array>
    <dimension dim="1">band</dimension>
    <dimension dim="2">kpoint</dimension>
    <dimension dim="3">spin</dimension>
    <field>eigene</field>
    <field>occ</field>
    <set>
     <set comment="spin 1">
      <set comment="kpoint 1">
       <r>   -8.9431    1.0000 </r>
       <r>    3.5426    1.0000 </r>
       <r>    3.5426    1.0000 </r>
       <r>    3.5426    1.0000 </r>
       <r>    4.1284   -0.0000 </r>
       <r>    6.1855    0.0000 </r>
       <r>    6.1855    0.0000 </r>
       <r>    6.1855    0.0000 </r>
       <r>   10.3710    0.0000 </r>
       <r>   13.2130    0.0000 </r>
       <r>   13.2130    0.0000 </r>
       <r>   14.6151    0.0000 </r>
       <r>   14.6151    0.0000 </r>
       <r>   14.6151    0.0000 </r>
       <r>   17.7804    0.0000 </r>
       <r>   28.2765    0.0000 </r>
       <r>   28.2765    0.0000 </r>
       <r>   28.2765    0.0000 </r>
       <r>   28.8346    0.0000 </r>
       <r>   28.8346    0.0000 </r>
       <r>   28.8346    0.0000 </r>
       <r>   29.4909    0.0000 </r>
       <r>   29.4909    0.0000 </r>
       <r>   30.1876    0.0000 </r>
       <r>   30.1876    0.0000 </r>
       <r>   30.1876    0.0000 </r>
       <r>   38.6602    0.0000 </r>
       <r>   39.1278    0.0000 </r>
       <r>   39.1278    0.0000 </r>
       <r>   39.1278    0.0000 </r>
       <r>   41.9628    0.0000 </r>
       <r>   41.9632    0.0000 </r>
       <r>   42.5247    0.0000 </r>
       <r>   42.5249    0.0000 </r>
       <r>   43.4808    0.0000 </r>
       <r>   43.5823    0.0000 </r>
       <r>   43.5833    0.0000 </r>
       <r>   43.5847    0.0000 </r>
       <r>   44.0666    0.0000 </r>
       <r>   44.0670    0.0000 </r>
       <r>   44.0689    0.0000 </r>
       <r>   44.9167    0.0000 </r>
       <r>   44.9198    0.0000 </r>
       <r>   44.9244    0.0000 </r>
       <r>   45.3256    0.0000 </r>
       <r>   45.3275    0.0000 </r>
       <r>   45.3299    0.0000 </r>
       <r>   46.5309    0.0000 </r>
       <r>   46.5367    0.0000 </r>
       <r>   46.5431    0.0000 </r>
       <r>   50.2058    0.0000 </r>
       <r>   51.9399    0.0000 </r>
       <r>   52.1039    0.0000 </r>
       <r>   52.2397    0.0000 </r>
      </set>
      <set comment="kpoint 2">
       <r>   -8.6098    1.0000 </r>
       <r>    0.5742    1.0000 </r>
       <r>    3.0147    1.0000 </r>
       <r>    3.0147    1.0000 </r>
       <r>    4.8162   -0.0000 </r>
       <r>    6.8820    0.0000 </r>
       <r>    6.8820    0.0000 </r>
       <r>    7.8966    0.0000 </r>
       <r>   11.6876    0.0000 </r>
       <r>   12.1410    0.0000 </r>
       <r>   12.1410    0.0000 </r>
       <r>   13.8507    0.0000 </r>
       <r>   16.9626    0.0000 </r>
       <r>   16.9626    0.0000 </r>
       <r>   19.9855    0.0000 </r>
       <r>   24.0373    0.0000 </r>
       <r>   24.0373    0.0000 </r>
       <r>   24.2948    0.0000 </r>
       <r>   29.1007    0.0000 </r>
       <r>   29.1007    0.0000 </r>
       <r>   29.4846    0.0000 </r>
       <r>   29.4846    0.0000 </r>
       <r>   30.4752    0.0000 </r>
       <r>   31.7577    0.0000 </r>
       <r>   34.7390    0.0000 </r>
       <r>   34.9591    0.0000 </r>
       <r>   34.9591    0.0000 </r>
       <r>   37.0597    0.0000 </r>
       <r>   37.0597    0.0000 </r>
       <r>   38.1406    0.0000 </r>
       <r>   38.1406    0.0000 </r>
       <r>   39.7682    0.0000 </r>
       <r>   39.7682    0.0000 </r>
       <r>   39.9986    0.0000 </r>
       <r>   41.5415    0.0000 </r>
       <r>   41.5546    0.0000 </r>
       <r>   42.9050    0.0000 </r>
       <r>   42.9052    0.0000 </r>
       <r>   43.7601    0.0000 </r>
       <r>   44.2286    0.0000 </r>
       <r>   44.6440    0.0000 </r>
       <r>   44.6441    0.0000 </r>
       <r>   45.8800    0.0000 </r>
       <r>   47.0920    0.0000 </r>
       <r>   47.1043    0.0000 </r>
       <r>   48.3867    0.0000 </r>
       <r>   48.4265    0.0000 </r>
       <r>   48.4412    0.0000 </r>
       <r>   49.9768    0.0000 </r>
       <r>   50.0940    0.0000 </r>
       <r>   50.8889    0.0000 </r>
       <r>   51.5063    0.0000 </r>
       <r>   52.8890    0.0000 </r>
       <r>   53.3590    0.0000 </r>
      </set>
      <set comment="kpoint 3">
       <r>   -7.6807    1.0000 </r>
       <r>   -2.3649    1.0000 </r>
       <r>    2.3558    1.0000 </r>
       <r>    2.3558    1.0000 </r>
       <r>    4.2983   -0.0000 </r>
       <r>    7.4529    0.0000 </r>
       <r>    7.4529    0.0000 </r>
       <r>   10.7550    0.0000 </r>
       <r>   11.7592    0.0000 </r>
       <r>   12.7359    0.0000 </r>
       <r>   12.7359    0.0000 </r>
       <r>   16.1844    0.0000 </r>
       <r>   19.3194    0.0000 </r>
       <r>   19.3194    0.0000 </r>
       <r>   20.5310    0.0000 </r>
       <r>   20.9311    0.0000 </r>
       <r>   20.9311    0.0000 </r>
       <r>   24.2082    0.0000 </r>
       <r>   28.9569    0.0000 </r>
       <r>   29.4250    0.0000 </r>
       <r>   29.4250    0.0000 </r>
       <r>   30.1241    0.0000 </r>
       <r>   30.1241    0.0000 </r>
       <r>   31.2050    0.0000 </r>
       <r>   31.3546    0.0000 </r>
       <r>   31.3546    0.0000 </r>
       <r>   33.2361    0.0000 </r>
       <r>   35.9399    0.0000 </r>
       <r>   35.9399    0.0000 </r>
       <r>   36.5294    0.0000 </r>
       <r>   36.5294    0.0000 </r>
       <r>   36.7387    0.0000 </r>
       <r>   38.5361    0.0000 </r>
       <r>   39.1236    0.0000 </r>
       <r>   41.8520    0.0000 </r>
       <r>   41.8520    0.0000 </r>
       <r>   42.5585    0.0000 </r>
       <r>   42.5585    0.0000 </r>
       <r>   43.1104    0.0000 </r>
       <r>   44.7085    0.0000 </r>
       <r>   44.7085    0.0000 </r>
       <r>   44.8528    0.0000 </r>
       <r>   46.2772    0.0000 </r>
       <r>   49.9745    0.0000 </r>
       <r>   49.9799    0.0000 </r>
       <r>   51.2186    0.0000 </r>
       <r>   51.2267    0.0000 </r>
       <r>   52.6157    0.0000 </r>
       <r>   53.6117    0.0000 </r>
       <r>   53.7484    0.0000 </r>
       <r>   54.1403    0.0000 </r>
       <r>   56.7935    0.0000 </r>
       <r>   57.1445    0.0000 </r>
       <r>   58.2522    0.0000 </r>
      </set>
      <set comment="kpoint 4">
       <r>   -6.8489    1.0000 </r>
       <r>   -3.8937    1.0000 </r>
       <r>    2.1113    1.0000 </r>
       <r>    2.1113    1.0000 </r>
       <r>    4.0860   -0.0000 </r>
       <r>    7.4454    0.0000 </r>
       <r>    7.4454    0.0000 </r>
       <r>   10.9381    0.0000 </r>
       <r>   14.3319    0.0000 </r>
       <r>   14.8802    0.0000 </r>
       <r>   14.9530    0.0000 </r>
       <r>   14.9530    0.0000 </r>
       <r>   16.0774    0.0000 </r>
       <r>   16.0774    0.0000 </r>
       <r>   22.6097    0.0000 </r>
       <r>   23.8851    0.0000 </r>
       <r>   25.3290    0.0000 </r>
       <r>   25.3290    0.0000 </r>
       <r>   25.5017    0.0000 </r>
       <r>   25.5017    0.0000 </r>
       <r>   28.8166    0.0000 </r>
       <r>   29.9944    0.0000 </r>
       <r>   30.2907    0.0000 </r>
       <r>   30.2907    0.0000 </r>
       <r>   30.8074    0.0000 </r>
       <r>   30.8074    0.0000 </r>
       <r>   31.7139    0.0000 </r>
       <r>   35.1330    0.0000 </r>
       <r>   35.1330    0.0000 </r>
       <r>   35.3268    0.0000 </r>
       <r>   35.3268    0.0000 </r>
       <r>   36.1602    0.0000 </r>
       <r>   37.2621    0.0000 </r>
       <r>   37.4082    0.0000 </r>
       <r>   42.5243    0.0000 </r>
       <r>   42.5243    0.0000 </r>
       <r>   42.7859    0.0000 </r>
       <r>   43.7223    0.0000 </r>
       <r>   43.7224    0.0000 </r>
       <r>   44.7318    0.0000 </r>
       <r>   48.1223    0.0000 </r>
       <r>   48.1261    0.0000 </r>
       <r>   49.4543    0.0000 </r>
       <r>   49.4595    0.0000 </r>
       <r>   50.2460    0.0000 </r>
       <r>   52.4237    0.0000 </r>
       <r>   52.9052    0.0000 </r>
       <r>   53.1451    0.0000 </r>
       <r>   54.2486    0.0000 </r>
       <r>   54.6306    0.0000 </r>
       <r>   55.4999    0.0000 </r>
       <r>   56.1942    0.0000 </r>
       <r>   58.0819    0.0000 </r>
       <r>   59.2856    0.0000 </r>
      </set>
      <set comment="kpoint 5">
       <r>   -8.4956    1.0000 </r>
       <r>    0.6361    1.0000 </r>
       <r>    2.2464    1.0000 </r>
       <r>    2.2464    1.0000 </r>
       <r>    5.2927    0.0000 </r>
       <r>    6.5407    0.0000 </r>
       <r>    8.0435    0.0000 </r>
       <r>    8.0435    0.0000 </r>
       <r>   10.7184    0.0000 </r>
       <r>   12.2710    0.0000 </r>
       <r>   13.6727    0.0000 </r>
       <r>   15.5514    0.0000 </r>
       <r>   15.5514    0.0000 </r>
       <r>   16.3992    0.0000 </r>
       <r>   21.2953    0.0000 </r>
       <r>   23.5850    0.0000 </r>
       <r>   23.5850    0.0000 </r>
       <r>   24.7868    0.0000 </r>
       <r>   25.2815    0.0000 </r>
       <r>   28.7047    0.0000 </r>
       <r>   29.9328    0.0000 </r>
       <r>   29.9328    0.0000 </r>
       <r>   31.4030    0.0000 </r>
       <r>   34.8154    0.0000 </r>
       <r>   34.8154    0.0000 </r>
       <r>   35.0563    0.0000 </r>
       <r>   35.0563    0.0000 </r>
       <r>   35.4122    0.0000 </r>
       <r>   35.4634    0.0000 </r>
       <r>   36.3034    0.0000 </r>
       <r>   37.8243    0.0000 </r>
       <r>   40.4166    0.0000 </r>
       <r>   40.4166    0.0000 </r>
       <r>   40.6372    0.0000 </r>
       <r>   41.2969    0.0000 </r>
       <r>   41.6289    0.0000 </r>
       <r>   42.0627    0.0000 </r>
       <r>   42.0629    0.0000 </r>
       <r>   42.6762    0.0000 </r>
       <r>   45.2116    0.0000 </r>
       <r>   45.6495    0.0000 </r>
       <r>   45.6528    0.0000 </r>
       <r>   46.3072    0.0000 </r>
       <r>   47.2540    0.0000 </r>
       <r>   47.9039    0.0000 </r>
       <r>   47.9209    0.0000 </r>
       <r>   48.6726    0.0000 </r>
       <r>   48.7172    0.0000 </r>
       <r>   48.9169    0.0000 </r>
       <r>   49.9660    0.0000 </r>
       <r>   50.3593    0.0000 </r>
       <r>   51.6841    0.0000 </r>
       <r>   53.0994    0.0000 </r>
       <r>   56.3757    0.0000 </r>
      </set>
      <set comment="kpoint 6">
       <r>   -7.7441    1.0000 </r>
       <r>   -1.6477    1.0000 </r>
       <r>    1.2955    1.0000 </r>
       <r>    1.6234    1.0000 </r>
       <r>    5.5178    0.0000 </r>
       <r>    6.8596    0.0000 </r>
       <r>    8.6890    0.0000 </r>
       <r>    8.9397    0.0000 </r>
       <r>   12.2553    0.0000 </r>
       <r>   13.5326    0.0000 </r>
       <r>   14.0114    0.0000 </r>
       <r>   15.8545    0.0000 </r>
       <r>   18.2190    0.0000 </r>
       <r>   19.4221    0.0000 </r>
       <r>   19.7507    0.0000 </r>
       <r>   20.0313    0.0000 </r>
       <r>   23.9228    0.0000 </r>
       <r>   24.8554    0.0000 </r>
       <r>   25.0300    0.0000 </r>
       <r>   26.3760    0.0000 </r>
       <r>   29.0885    0.0000 </r>
       <r>   30.5607    0.0000 </r>
       <r>   30.9441    0.0000 </r>
       <r>   32.1840    0.0000 </r>
       <r>   32.2190    0.0000 </r>
       <r>   33.3650    0.0000 </r>
       <r>   34.8624    0.0000 </r>
       <r>   34.9422    0.0000 </r>
       <r>   35.6278    0.0000 </r>
       <r>   35.9092    0.0000 </r>
       <r>   37.7416    0.0000 </r>
       <r>   37.8846    0.0000 </r>
       <r>   38.9622    0.0000 </r>
       <r>   39.8713    0.0000 </r>
       <r>   39.8926    0.0000 </r>
       <r>   41.2763    0.0000 </r>
       <r>   42.4699    0.0000 </r>
       <r>   43.5798    0.0000 </r>
       <r>   44.6853    0.0000 </r>
       <r>   44.8527    0.0000 </r>
       <r>   45.4856    0.0000 </r>
       <r>   45.8210    0.0000 </r>
       <r>   46.4839    0.0000 </r>
       <r>   47.4741    0.0000 </r>
       <r>   48.2338    0.0000 </r>
       <r>   48.6543    0.0000 </r>
       <r>   51.1037    0.0000 </r>
       <r>   51.6068    0.0000 </r>
       <r>   51.7736    0.0000 </r>
       <r>   52.4410    0.0000 </r>
       <r>   53.9628    0.0000 </r>
       <r>   55.7114    0.0000 </r>
       <r>   56.9345    0.0000 </r>
       <r>   57.8468    0.0000 </r>
      </set>
      <set comment="kpoint 7">
       <r>   -6.6807    1.0000 </r>
       <r>   -3.6612    1.0000 </r>
       <r>    0.4775    1.0000 </r>
       <r>    1.5499    1.0000 </r>
       <r>    5.4072    0.0000 </r>
       <r>    7.5208    0.0000 </r>
       <r>    8.6664    0.0000 </r>
       <r>   10.1545    0.0000 </r>
       <r>   13.0259    0.0000 </r>
       <r>   14.8518    0.0000 </r>
       <r>   14.9565    0.0000 </r>
       <r>   15.5774    0.0000 </r>
       <r>   16.6096    0.0000 </r>
       <r>   20.0106    0.0000 </r>
       <r>   21.6540    0.0000 </r>
       <r>   22.5328    0.0000 </r>
       <r>   23.7351    0.0000 </r>
       <r>   24.5397    0.0000 </r>
       <r>   25.4649    0.0000 </r>
       <r>   26.4688    0.0000 </r>
       <r>   26.9603    0.0000 </r>
       <r>   29.3331    0.0000 </r>
       <r>   29.3900    0.0000 </r>
       <r>   30.4251    0.0000 </r>
       <r>   30.5864    0.0000 </r>
       <r>   31.4276    0.0000 </r>
       <r>   32.3905    0.0000 </r>
       <r>   32.9683    0.0000 </r>
       <r>   34.8287    0.0000 </r>
       <r>   36.1456    0.0000 </r>
       <r>   36.3951    0.0000 </r>
       <r>   37.3854    0.0000 </r>
       <r>   38.5048    0.0000 </r>
       <r>   39.4382    0.0000 </r>
       <r>   40.1805    0.0000 </r>
       <r>   42.0801    0.0000 </r>
       <r>   42.9584    0.0000 </r>
       <r>   44.2981    0.0000 </r>
       <r>   46.3469    0.0000 </r>
       <r>   46.9718    0.0000 </r>
       <r>   47.1484    0.0000 </r>
       <r>   47.7746    0.0000 </r>
       <r>   48.4829    0.0000 </r>
       <r>   48.8450    0.0000 </r>
       <r>   49.1965    0.0000 </r>
       <r>   50.9027    0.0000 </r>
       <r>   51.1248    0.0000 </r>
       <r>   52.9361    0.0000 </r>
       <r>   53.2262    0.0000 </r>
       <r>   54.0119    0.0000 </r>
       <r>   56.3555    0.0000 </r>
       <r>   57.0744    0.0000 </r>
       <r>   57.9461    0.0000 </r>
       <r>   58.8622    0.0000 </r>
      </set>
      <set comment="kpoint 8">
       <r>   -7.0179    1.0000 </r>
       <r>   -3.1151    1.0000 </r>
       <r>    0.2602    1.0000 </r>
       <r>    2.0387    1.0000 </r>
       <r>    5.5516    0.0000 </r>
       <r>    7.7893    0.0000 </r>
       <r>    8.1216    0.0000 </r>
       <r>   10.4733    0.0000 </r>
       <r>   12.1201    0.0000 </r>
       <r>   12.9053    0.0000 </r>
       <r>   14.8410    0.0000 </r>
       <r>   16.4898    0.0000 </r>
       <r>   18.2977    0.0000 </r>
       <r>   19.9860    0.0000 </r>
       <r>   20.0462    0.0000 </r>
       <r>   21.6362    0.0000 </r>
       <r>   24.1958    0.0000 </r>
       <r>   25.5037    0.0000 </r>
       <r>   26.1721    0.0000 </r>
       <r>   26.4191    0.0000 </r>
       <r>   27.5839    0.0000 </r>
       <r>   27.5998    0.0000 </r>
       <r>   30.3474    0.0000 </r>
       <r>   30.7023    0.0000 </r>
       <r>   31.2522    0.0000 </r>
       <r>   31.4226    0.0000 </r>
       <r>   31.4553    0.0000 </r>
       <r>   35.1083    0.0000 </r>
       <r>   35.7570    0.0000 </r>
       <r>   36.3315    0.0000 </r>
       <r>   36.6807    0.0000 </r>
       <r>   37.9111    0.0000 </r>
       <r>   38.2492    0.0000 </r>
       <r>   39.1001    0.0000 </r>
       <r>   39.9377    0.0000 </r>
       <r>   41.9279    0.0000 </r>
       <r>   42.5726    0.0000 </r>
       <r>   43.1346    0.0000 </r>
       <r>   43.4240    0.0000 </r>
       <r>   45.9207    0.0000 </r>
       <r>   47.6296    0.0000 </r>
       <r>   47.9973    0.0000 </r>
       <r>   49.1377    0.0000 </r>
       <r>   49.8267    0.0000 </r>
       <r>   49.9893    0.0000 </r>
       <r>   50.8639    0.0000 </r>
       <r>   52.1257    0.0000 </r>
       <r>   52.9782    0.0000 </r>
       <r>   53.2575    0.0000 </r>
       <r>   53.8939    0.0000 </r>
       <r>   54.6012    0.0000 </r>
       <r>   56.0460    0.0000 </r>
       <r>   56.7218    0.0000 </r>
       <r>   58.1343    0.0000 </r>
      </set>
      <set comment="kpoint 9">
       <r>   -8.0676    1.0000 </r>
       <r>   -0.9422    1.0000 </r>
       <r>    1.0143    1.0000 </r>
       <r>    2.8321    1.0000 </r>
       <r>    5.7320    0.0000 </r>
       <r>    7.2054    0.0000 </r>
       <r>    7.5018    0.0000 </r>
       <r>    8.8566    0.0000 </r>
       <r>   11.1348    0.0000 </r>
       <r>   13.1652    0.0000 </r>
       <r>   13.1840    0.0000 </r>
       <r>   15.5946    0.0000 </r>
       <r>   16.8706    0.0000 </r>
       <r>   19.3500    0.0000 </r>
       <r>   20.1726    0.0000 </r>
       <r>   22.4762    0.0000 </r>
       <r>   23.9192    0.0000 </r>
       <r>   24.5119    0.0000 </r>
       <r>   24.5513    0.0000 </r>
       <r>   26.4602    0.0000 </r>
       <r>   30.1686    0.0000 </r>
       <r>   30.7425    0.0000 </r>
       <r>   31.7353    0.0000 </r>
       <r>   32.8073    0.0000 </r>
       <r>   33.1884    0.0000 </r>
       <r>   33.8166    0.0000 </r>
       <r>   34.7076    0.0000 </r>
       <r>   35.6868    0.0000 </r>
       <r>   36.1996    0.0000 </r>
       <r>   36.5450    0.0000 </r>
       <r>   36.8364    0.0000 </r>
       <r>   38.4954    0.0000 </r>
       <r>   39.4313    0.0000 </r>
       <r>   39.7545    0.0000 </r>
       <r>   39.9982    0.0000 </r>
       <r>   40.6157    0.0000 </r>
       <r>   41.8494    0.0000 </r>
       <r>   42.1144    0.0000 </r>
       <r>   43.7147    0.0000 </r>
       <r>   44.7147    0.0000 </r>
       <r>   45.4115    0.0000 </r>
       <r>   46.0064    0.0000 </r>
       <r>   46.9555    0.0000 </r>
       <r>   48.0951    0.0000 </r>
       <r>   48.1954    0.0000 </r>
       <r>   48.8980    0.0000 </r>
       <r>   49.6847    0.0000 </r>
       <r>   49.7900    0.0000 </r>
       <r>   52.4394    0.0000 </r>
       <r>   53.4255    0.0000 </r>
       <r>   54.1485    0.0000 </r>
       <r>   55.1334    0.0000 </r>
       <r>   56.1282    0.0000 </r>
       <r>   57.1723    0.0000 </r>
      </set>
      <set comment="kpoint 10">
       <r>   -7.1773    1.0000 </r>
       <r>   -2.3879    1.0000 </r>
       <r>    0.9129    1.0000 </r>
       <r>    0.9129    1.0000 </r>
       <r>    4.4286   -0.0000 </r>
       <r>    5.7612    0.0000 </r>
       <r>   10.9608    0.0000 </r>
       <r>   10.9608    0.0000 </r>
       <r>   12.2910    0.0000 </r>
       <r>   15.0554    0.0000 </r>
       <r>   15.6281    0.0000 </r>
       <r>   18.3207    0.0000 </r>
       <r>   18.3207    0.0000 </r>
       <r>   18.8323    0.0000 </r>
       <r>   19.1991    0.0000 </r>
       <r>   19.1991    0.0000 </r>
       <r>   20.6169    0.0000 </r>
       <r>   21.8688    0.0000 </r>
       <r>   27.4504    0.0000 </r>
       <r>   28.2755    0.0000 </r>
       <r>   28.6149    0.0000 </r>
       <r>   28.6149    0.0000 </r>
       <r>   29.5202    0.0000 </r>
       <r>   30.4012    0.0000 </r>
       <r>   31.1619    0.0000 </r>
       <r>   31.1619    0.0000 </r>
       <r>   32.6671    0.0000 </r>
       <r>   36.4574    0.0000 </r>
       <r>   37.3308    0.0000 </r>
       <r>   37.3308    0.0000 </r>
       <r>   38.7405    0.0000 </r>
       <r>   39.3202    0.0000 </r>
       <r>   40.5398    0.0000 </r>
       <r>   40.5398    0.0000 </r>
       <r>   40.7660    0.0000 </r>
       <r>   40.8442    0.0000 </r>
       <r>   40.8442    0.0000 </r>
       <r>   42.8789    0.0000 </r>
       <r>   43.5989    0.0000 </r>
       <r>   43.7063    0.0000 </r>
       <r>   44.4109    0.0000 </r>
       <r>   44.4112    0.0000 </r>
       <r>   46.1751    0.0000 </r>
       <r>   49.0155    0.0000 </r>
       <r>   50.3941    0.0000 </r>
       <r>   50.4213    0.0000 </r>
       <r>   51.5807    0.0000 </r>
       <r>   52.4022    0.0000 </r>
       <r>   53.1553    0.0000 </r>
       <r>   53.1902    0.0000 </r>
       <r>   53.9345    0.0000 </r>
       <r>   54.2629    0.0000 </r>
       <r>   58.2311    0.0000 </r>
       <r>   59.2598    0.0000 </r>
      </set>
      <set comment="kpoint 11">
       <r>   -6.1074    1.0000 </r>
       <r>   -3.8870    1.0000 </r>
       <r>   -0.1982    1.0000 </r>
       <r>    0.7514    1.0000 </r>
       <r>    4.8319   -0.0000 </r>
       <r>    6.4304    0.0000 </r>
       <r>   10.7463    0.0000 </r>
       <r>   11.2820    0.0000 </r>
       <r>   14.1157    0.0000 </r>
       <r>   15.3593    0.0000 </r>
       <r>   15.7096    0.0000 </r>
       <r>   17.2884    0.0000 </r>
       <r>   17.7575    0.0000 </r>
       <r>   19.8005    0.0000 </r>
       <r>   20.7312    0.0000 </r>
       <r>   21.4205    0.0000 </r>
       <r>   22.0842    0.0000 </r>
       <r>   23.0607    0.0000 </r>
       <r>   23.6503    0.0000 </r>
       <r>   26.1327    0.0000 </r>
       <r>   26.3079    0.0000 </r>
       <r>   26.6310    0.0000 </r>
       <r>   28.5727    0.0000 </r>
       <r>   30.1038    0.0000 </r>
       <r>   31.8193    0.0000 </r>
       <r>   31.8478    0.0000 </r>
       <r>   33.9786    0.0000 </r>
       <r>   34.0472    0.0000 </r>
       <r>   35.5663    0.0000 </r>
       <r>   36.3693    0.0000 </r>
       <r>   37.5087    0.0000 </r>
       <r>   38.3333    0.0000 </r>
       <r>   38.8677    0.0000 </r>
       <r>   39.2870    0.0000 </r>
       <r>   41.7357    0.0000 </r>
       <r>   41.8143    0.0000 </r>
       <r>   42.8001    0.0000 </r>
       <r>   43.7590    0.0000 </r>
       <r>   44.8024    0.0000 </r>
       <r>   45.0268    0.0000 </r>
       <r>   45.7343    0.0000 </r>
       <r>   47.9904    0.0000 </r>
       <r>   48.4021    0.0000 </r>
       <r>   49.1195    0.0000 </r>
       <r>   49.8677    0.0000 </r>
       <r>   50.7101    0.0000 </r>
       <r>   51.4067    0.0000 </r>
       <r>   53.1280    0.0000 </r>
       <r>   54.4471    0.0000 </r>
       <r>   54.7707    0.0000 </r>
       <r>   56.2044    0.0000 </r>
       <r>   56.9259    0.0000 </r>
       <r>   57.4630    0.0000 </r>
       <r>   58.3300    0.0000 </r>
      </set>
      <set comment="kpoint 12">
       <r>   -5.9649    1.0000 </r>
       <r>   -4.0413    1.0000 </r>
       <r>   -0.9077    1.0000 </r>
       <r>    1.2044    1.0000 </r>
       <r>    5.2307    0.0000 </r>
       <r>    9.4847    0.0000 </r>
       <r>   10.0974    0.0000 </r>
       <r>   10.1205    0.0000 </r>
       <r>   10.9727    0.0000 </r>
       <r>   12.7062    0.0000 </r>
       <r>   17.3288    0.0000 </r>
       <r>   17.7043    0.0000 </r>
       <r>   19.3266    0.0000 </r>
       <r>   20.6171    0.0000 </r>
       <r>   21.0923    0.0000 </r>
       <r>   22.1007    0.0000 </r>
       <r>   22.2144    0.0000 </r>
       <r>   24.1205    0.0000 </r>
       <r>   25.4890    0.0000 </r>
       <r>   25.8326    0.0000 </r>
       <r>   25.9124    0.0000 </r>
       <r>   26.2420    0.0000 </r>
       <r>   28.9116    0.0000 </r>
       <r>   29.7052    0.0000 </r>
       <r>   29.7936    0.0000 </r>
       <r>   31.7528    0.0000 </r>
       <r>   31.7534    0.0000 </r>
       <r>   32.2274    0.0000 </r>
       <r>   36.7706    0.0000 </r>
       <r>   37.2986    0.0000 </r>
       <r>   37.3541    0.0000 </r>
       <r>   37.6784    0.0000 </r>
       <r>   37.9667    0.0000 </r>
       <r>   38.4714    0.0000 </r>
       <r>   41.4192    0.0000 </r>
       <r>   41.8161    0.0000 </r>
       <r>   43.0433    0.0000 </r>
       <r>   45.0463    0.0000 </r>
       <r>   45.4692    0.0000 </r>
       <r>   47.3680    0.0000 </r>
       <r>   47.8475    0.0000 </r>
       <r>   48.5913    0.0000 </r>
       <r>   49.1195    0.0000 </r>
       <r>   50.4234    0.0000 </r>
       <r>   50.4420    0.0000 </r>
       <r>   51.1056    0.0000 </r>
       <r>   51.3145    0.0000 </r>
       <r>   52.7259    0.0000 </r>
       <r>   53.2066    0.0000 </r>
       <r>   54.2184    0.0000 </r>
       <r>   55.1610    0.0000 </r>
       <r>   56.0453    0.0000 </r>
       <r>   56.0912    0.0000 </r>
       <r>   58.2668    0.0000 </r>
      </set>
      <set comment="kpoint 13">
       <r>   -5.0782    1.0000 </r>
       <r>   -5.0782    1.0000 </r>
       <r>    0.4369    1.0000 </r>
       <r>    0.4369    1.0000 </r>
       <r>    4.5439   -0.0000 </r>
       <r>    4.5439   -0.0000 </r>
       <r>   13.1220    0.0000 </r>
       <r>   13.1220    0.0000 </r>
       <r>   15.3817    0.0000 </r>
       <r>   15.3817    0.0000 </r>
       <r>   16.4583    0.0000 </r>
       <r>   16.4583    0.0000 </r>
       <r>   17.3683    0.0000 </r>
       <r>   17.3683    0.0000 </r>
       <r>   22.8778    0.0000 </r>
       <r>   22.8778    0.0000 </r>
       <r>   22.8799    0.0000 </r>
       <r>   22.8799    0.0000 </r>
       <r>   22.8828    0.0000 </r>
       <r>   22.8828    0.0000 </r>
       <r>   23.5930    0.0000 </r>
       <r>   23.5930    0.0000 </r>
       <r>   30.8498    0.0000 </r>
       <r>   30.8498    0.0000 </r>
       <r>   32.1779    0.0000 </r>
       <r>   32.1779    0.0000 </r>
       <r>   35.6868    0.0000 </r>
       <r>   35.6868    0.0000 </r>
       <r>   36.4602    0.0000 </r>
       <r>   36.4602    0.0000 </r>
       <r>   38.5725    0.0000 </r>
       <r>   38.5725    0.0000 </r>
       <r>   38.7939    0.0000 </r>
       <r>   38.7939    0.0000 </r>
       <r>   40.0754    0.0000 </r>
       <r>   40.0754    0.0000 </r>
       <r>   42.5097    0.0000 </r>
       <r>   42.5097    0.0000 </r>
       <r>   42.9188    0.0000 </r>
       <r>   42.9188    0.0000 </r>
       <r>   47.0033    0.0000 </r>
       <r>   47.0035    0.0000 </r>
       <r>   49.8423    0.0000 </r>
       <r>   49.8448    0.0000 </r>
       <r>   50.3358    0.0000 </r>
       <r>   50.3406    0.0000 </r>
       <r>   55.1196    0.0000 </r>
       <r>   55.3479    0.0000 </r>
       <r>   55.9679    0.0000 </r>
       <r>   56.8954    0.0000 </r>
       <r>   57.2602    0.0000 </r>
       <r>   57.4082    0.0000 </r>
       <r>   57.9014    0.0000 </r>
       <r>   58.7550    0.0000 </r>
      </set>
      <set comment="kpoint 14">
       <r>   -6.8343    1.0000 </r>
       <r>   -2.9677    1.0000 </r>
       <r>   -0.1420    1.0000 </r>
       <r>    1.0920    1.0000 </r>
       <r>    6.5202    0.0000 </r>
       <r>    6.9662    0.0000 </r>
       <r>    8.1051    0.0000 </r>
       <r>   10.7422    0.0000 </r>
       <r>   13.0455    0.0000 </r>
       <r>   13.6608    0.0000 </r>
       <r>   16.1642    0.0000 </r>
       <r>   16.9339    0.0000 </r>
       <r>   17.5326    0.0000 </r>
       <r>   19.5714    0.0000 </r>
       <r>   19.9870    0.0000 </r>
       <r>   21.7201    0.0000 </r>
       <r>   23.2659    0.0000 </r>
       <r>   25.0240    0.0000 </r>
       <r>   25.0441    0.0000 </r>
       <r>   25.9513    0.0000 </r>
       <r>   26.9304    0.0000 </r>
       <r>   27.9241    0.0000 </r>
       <r>   29.0662    0.0000 </r>
       <r>   30.6221    0.0000 </r>
       <r>   30.9046    0.0000 </r>
       <r>   32.4335    0.0000 </r>
       <r>   33.5307    0.0000 </r>
       <r>   34.2690    0.0000 </r>
       <r>   34.8170    0.0000 </r>
       <r>   35.8500    0.0000 </r>
       <r>   36.3328    0.0000 </r>
       <r>   38.3547    0.0000 </r>
       <r>   39.4260    0.0000 </r>
       <r>   40.1374    0.0000 </r>
       <r>   41.6124    0.0000 </r>
       <r>   42.0912    0.0000 </r>
       <r>   43.4398    0.0000 </r>
       <r>   44.3460    0.0000 </r>
       <r>   44.5500    0.0000 </r>
       <r>   44.6031    0.0000 </r>
       <r>   46.2954    0.0000 </r>
       <r>   46.4064    0.0000 </r>
       <r>   47.0320    0.0000 </r>
       <r>   49.2122    0.0000 </r>
       <r>   49.5340    0.0000 </r>
       <r>   50.7018    0.0000 </r>
       <r>   51.3678    0.0000 </r>
       <r>   52.5258    0.0000 </r>
       <r>   53.4083    0.0000 </r>
       <r>   55.3851    0.0000 </r>
       <r>   55.5901    0.0000 </r>
       <r>   56.0462    0.0000 </r>
       <r>   57.6077    0.0000 </r>
       <r>   57.9057    0.0000 </r>
      </set>
      <set comment="kpoint 15">
       <r>   -5.9590    1.0000 </r>
       <r>   -4.0780    1.0000 </r>
       <r>   -0.5879    1.0000 </r>
       <r>    0.6533    1.0000 </r>
       <r>    6.7900    0.0000 </r>
       <r>    7.3602    0.0000 </r>
       <r>    9.7969    0.0000 </r>
       <r>    9.8080    0.0000 </r>
       <r>   11.8128    0.0000 </r>
       <r>   15.5263    0.0000 </r>
       <r>   15.5633    0.0000 </r>
       <r>   16.3807    0.0000 </r>
       <r>   19.8920    0.0000 </r>
       <r>   20.4933    0.0000 </r>
       <r>   21.2210    0.0000 </r>
       <r>   21.9612    0.0000 </r>
       <r>   22.3219    0.0000 </r>
       <r>   24.6064    0.0000 </r>
       <r>   25.0917    0.0000 </r>
       <r>   25.5961    0.0000 </r>
       <r>   25.9273    0.0000 </r>
       <r>   27.9100    0.0000 </r>
       <r>   28.2619    0.0000 </r>
       <r>   28.8557    0.0000 </r>
       <r>   30.1973    0.0000 </r>
       <r>   31.7047    0.0000 </r>
       <r>   32.9403    0.0000 </r>
       <r>   33.3492    0.0000 </r>
       <r>   33.5073    0.0000 </r>
       <r>   34.4512    0.0000 </r>
       <r>   36.4409    0.0000 </r>
       <r>   38.4474    0.0000 </r>
       <r>   40.7585    0.0000 </r>
       <r>   41.4980    0.0000 </r>
       <r>   41.9426    0.0000 </r>
       <r>   42.8145    0.0000 </r>
       <r>   43.3162    0.0000 </r>
       <r>   43.8958    0.0000 </r>
       <r>   45.0673    0.0000 </r>
       <r>   45.5121    0.0000 </r>
       <r>   46.0284    0.0000 </r>
       <r>   47.8838    0.0000 </r>
       <r>   48.9433    0.0000 </r>
       <r>   49.5626    0.0000 </r>
       <r>   50.6965    0.0000 </r>
       <r>   51.7150    0.0000 </r>
       <r>   52.3843    0.0000 </r>
       <r>   52.4884    0.0000 </r>
       <r>   54.4483    0.0000 </r>
       <r>   54.7184    0.0000 </r>
       <r>   55.2257    0.0000 </r>
       <r>   55.7343    0.0000 </r>
       <r>   56.5180    0.0000 </r>
       <r>   58.0469    0.0000 </r>
      </set>
      <set comment="kpoint 16">
       <r>   -4.9990    1.0000 </r>
       <r>   -4.9990    1.0000 </r>
       <r>   -0.1961    1.0000 </r>
       <r>   -0.1961    1.0000 </r>
       <r>    6.4599    0.0000 </r>
       <r>    6.4599    0.0000 </r>
       <r>   10.2945    0.0000 </r>
       <r>   10.2945    0.0000 </r>
       <r>   14.6955    0.0000 </r>
       <r>   14.6955    0.0000 </r>
       <r>   16.6546    0.0000 </r>
       <r>   16.6546    0.0000 </r>
       <r>   20.3815    0.0000 </r>
       <r>   20.3815    0.0000 </r>
       <r>   20.9141    0.0000 </r>
       <r>   20.9141    0.0000 </r>
       <r>   21.9478    0.0000 </r>
       <r>   21.9478    0.0000 </r>
       <r>   25.6604    0.0000 </r>
       <r>   25.6604    0.0000 </r>
       <r>   26.7712    0.0000 </r>
       <r>   26.7712    0.0000 </r>
       <r>   27.2749    0.0000 </r>
       <r>   27.2749    0.0000 </r>
       <r>   31.4236    0.0000 </r>
       <r>   31.4236    0.0000 </r>
       <r>   33.0430    0.0000 </r>
       <r>   33.0430    0.0000 </r>
       <r>   35.8550    0.0000 </r>
       <r>   35.8550    0.0000 </r>
       <r>   38.7150    0.0000 </r>
       <r>   38.7150    0.0000 </r>
       <r>   38.8115    0.0000 </r>
       <r>   38.8115    0.0000 </r>
       <r>   42.2038    0.0000 </r>
       <r>   42.2038    0.0000 </r>
       <r>   44.2845    0.0000 </r>
       <r>   44.2845    0.0000 </r>
       <r>   44.3555    0.0000 </r>
       <r>   44.3555    0.0000 </r>
       <r>   48.2691    0.0000 </r>
       <r>   48.2695    0.0000 </r>
       <r>   49.5213    0.0000 </r>
       <r>   49.5255    0.0000 </r>
       <r>   50.7486    0.0000 </r>
       <r>   50.7634    0.0000 </r>
       <r>   51.0966    0.0000 </r>
       <r>   51.1175    0.0000 </r>
       <r>   53.8864    0.0000 </r>
       <r>   54.2042    0.0000 </r>
       <r>   56.6654    0.0000 </r>
       <r>   56.9978    0.0000 </r>
       <r>   58.1181    0.0000 </r>
       <r>   58.8161    0.0000 </r>
      </set>
     </set>
     <set comment="spin 2">
      <set comment="kpoint 1">
       <r>   -8.9431    1.0000 </r>
       <r>    3.5426    1.0000 </r>
       <r>    3.5426    1.0000 </r>
       <r>    3.5426    1.0000 </r>
       <r>    4.1284   -0.0000 </r>
       <r>    6.1855    0.0000 </r>
       <r>    6.1855    0.0000 </r>
       <r>    6.1855    0.0000 </r>
       <r>   10.3710    0.0000 </r>
       <r>   13.2130    0.0000 </r>
       <r>   13.2130    0.0000 </r>
       <r>   14.6151    0.0000 </r>
       <r>   14.6151    0.0000 </r>
       <r>   14.6151    0.0000 </r>
       <r>   17.7804    0.0000 </r>
       <r>   28.2765    0.0000 </r>
       <r>   28.2765    0.0000 </r>
       <r>   28.2765    0.0000 </r>
       <r>   28.8346    0.0000 </r>
       <r>   28.8346    0.0000 </r>
       <r>   28.8346    0.0000 </r>
       <r>   29.4909    0.0000 </r>
       <r>   29.4909    0.0000 </r>
       <r>   30.1876    0.0000 </r>
       <r>   30.1876    0.0000 </r>
       <r>   30.1876    0.0000 </r>
       <r>   38.6602    0.0000 </r>
       <r>   39.1278    0.0000 </r>
       <r>   39.1278    0.0000 </r>
       <r>   39.1278    0.0000 </r>
       <r>   41.9628    0.0000 </r>
       <r>   41.9629    0.0000 </r>
       <r>   42.5247    0.0000 </r>
       <r>   42.5248    0.0000 </r>
       <r>   43.4806    0.0000 </r>
       <r>   43.5822    0.0000 </r>
       <r>   43.5828    0.0000 </r>
       <r>   43.5840    0.0000 </r>
       <r>   44.0667    0.0000 </r>
       <r>   44.0674    0.0000 </r>
       <r>   44.0687    0.0000 </r>
       <r>   44.9167    0.0000 </r>
       <r>   44.9183    0.0000 </r>
       <r>   44.9192    0.0000 </r>
       <r>   45.3252    0.0000 </r>
       <r>   45.3265    0.0000 </r>
       <r>   45.3333    0.0000 </r>
       <r>   46.5308    0.0000 </r>
       <r>   46.5348    0.0000 </r>
       <r>   46.5592    0.0000 </r>
       <r>   50.2877    0.0000 </r>
       <r>   51.9676    0.0000 </r>
       <r>   52.0426    0.0000 </r>
       <r>   52.1910    0.0000 </r>
      </set>
      <set comment="kpoint 2">
       <r>   -8.6098    1.0000 </r>
       <r>    0.5742    1.0000 </r>
       <r>    3.0147    1.0000 </r>
       <r>    3.0147    1.0000 </r>
       <r>    4.8162   -0.0000 </r>
       <r>    6.8820    0.0000 </r>
       <r>    6.8820    0.0000 </r>
       <r>    7.8966    0.0000 </r>
       <r>   11.6876    0.0000 </r>
       <r>   12.1410    0.0000 </r>
       <r>   12.1410    0.0000 </r>
       <r>   13.8507    0.0000 </r>
       <r>   16.9626    0.0000 </r>
       <r>   16.9626    0.0000 </r>
       <r>   19.9855    0.0000 </r>
       <r>   24.0373    0.0000 </r>
       <r>   24.0373    0.0000 </r>
       <r>   24.2948    0.0000 </r>
       <r>   29.1007    0.0000 </r>
       <r>   29.1007    0.0000 </r>
       <r>   29.4846    0.0000 </r>
       <r>   29.4846    0.0000 </r>
       <r>   30.4752    0.0000 </r>
       <r>   31.7577    0.0000 </r>
       <r>   34.7390    0.0000 </r>
       <r>   34.9591    0.0000 </r>
       <r>   34.9591    0.0000 </r>
       <r>   37.0597    0.0000 </r>
       <r>   37.0597    0.0000 </r>
       <r>   38.1406    0.0000 </r>
       <r>   38.1406    0.0000 </r>
       <r>   39.7682    0.0000 </r>
       <r>   39.7682    0.0000 </r>
       <r>   39.9986    0.0000 </r>
       <r>   41.5413    0.0000 </r>
       <r>   41.5548    0.0000 </r>
       <r>   42.9050    0.0000 </r>
       <r>   42.9051    0.0000 </r>
       <r>   43.7602    0.0000 </r>
       <r>   44.2283    0.0000 </r>
       <r>   44.6439    0.0000 </r>
       <r>   44.6441    0.0000 </r>
       <r>   45.8793    0.0000 </r>
       <r>   47.0920    0.0000 </r>
       <r>   47.1005    0.0000 </r>
       <r>   48.3902    0.0000 </r>
       <r>   48.4016    0.0000 </r>
       <r>   48.4338    0.0000 </r>
       <r>   49.9549    0.0000 </r>
       <r>   49.9965    0.0000 </r>
       <r>   50.8285    0.0000 </r>
       <r>   51.5485    0.0000 </r>
       <r>   52.8437    0.0000 </r>
       <r>   55.0535    0.0000 </r>
      </set>
      <set comment="kpoint 3">
       <r>   -7.6807    1.0000 </r>
       <r>   -2.3649    1.0000 </r>
       <r>    2.3558    1.0000 </r>
       <r>    2.3558    1.0000 </r>
       <r>    4.2983   -0.0000 </r>
       <r>    7.4529    0.0000 </r>
       <r>    7.4529    0.0000 </r>
       <r>   10.7550    0.0000 </r>
       <r>   11.7592    0.0000 </r>
       <r>   12.7359    0.0000 </r>
       <r>   12.7359    0.0000 </r>
       <r>   16.1844    0.0000 </r>
       <r>   19.3194    0.0000 </r>
       <r>   19.3194    0.0000 </r>
       <r>   20.5310    0.0000 </r>
       <r>   20.9311    0.0000 </r>
       <r>   20.9311    0.0000 </r>
       <r>   24.2082    0.0000 </r>
       <r>   28.9569    0.0000 </r>
       <r>   29.4250    0.0000 </r>
       <r>   29.4250    0.0000 </r>
       <r>   30.1241    0.0000 </r>
       <r>   30.1241    0.0000 </r>
       <r>   31.2050    0.0000 </r>
       <r>   31.3546    0.0000 </r>
       <r>   31.3546    0.0000 </r>
       <r>   33.2361    0.0000 </r>
       <r>   35.9399    0.0000 </r>
       <r>   35.9399    0.0000 </r>
       <r>   36.5294    0.0000 </r>
       <r>   36.5294    0.0000 </r>
       <r>   36.7387    0.0000 </r>
       <r>   38.5361    0.0000 </r>
       <r>   39.1236    0.0000 </r>
       <r>   41.8520    0.0000 </r>
       <r>   41.8520    0.0000 </r>
       <r>   42.5585    0.0000 </r>
       <r>   42.5585    0.0000 </r>
       <r>   43.1104    0.0000 </r>
       <r>   44.7085    0.0000 </r>
       <r>   44.7085    0.0000 </r>
       <r>   44.8527    0.0000 </r>
       <r>   46.2772    0.0000 </r>
       <r>   49.9753    0.0000 </r>
       <r>   49.9784    0.0000 </r>
       <r>   51.2152    0.0000 </r>
       <r>   51.2261    0.0000 </r>
       <r>   52.5554    0.0000 </r>
       <r>   53.6147    0.0000 </r>
       <r>   53.7455    0.0000 </r>
       <r>   54.2538    0.0000 </r>
       <r>   56.8844    0.0000 </r>
       <r>   57.6692    0.0000 </r>
       <r>   59.0575    0.0000 </r>
      </set>
      <set comment="kpoint 4">
       <r>   -6.8489    1.0000 </r>
       <r>   -3.8937    1.0000 </r>
       <r>    2.1113    1.0000 </r>
       <r>    2.1113    1.0000 </r>
       <r>    4.0860   -0.0000 </r>
       <r>    7.4454    0.0000 </r>
       <r>    7.4454    0.0000 </r>
       <r>   10.9381    0.0000 </r>
       <r>   14.3319    0.0000 </r>
       <r>   14.8802    0.0000 </r>
       <r>   14.9530    0.0000 </r>
       <r>   14.9530    0.0000 </r>
       <r>   16.0774    0.0000 </r>
       <r>   16.0774    0.0000 </r>
       <r>   22.6097    0.0000 </r>
       <r>   23.8851    0.0000 </r>
       <r>   25.3290    0.0000 </r>
       <r>   25.3290    0.0000 </r>
       <r>   25.5017    0.0000 </r>
       <r>   25.5017    0.0000 </r>
       <r>   28.8166    0.0000 </r>
       <r>   29.9944    0.0000 </r>
       <r>   30.2907    0.0000 </r>
       <r>   30.2907    0.0000 </r>
       <r>   30.8074    0.0000 </r>
       <r>   30.8074    0.0000 </r>
       <r>   31.7139    0.0000 </r>
       <r>   35.1330    0.0000 </r>
       <r>   35.1330    0.0000 </r>
       <r>   35.3268    0.0000 </r>
       <r>   35.3268    0.0000 </r>
       <r>   36.1602    0.0000 </r>
       <r>   37.2621    0.0000 </r>
       <r>   37.4082    0.0000 </r>
       <r>   42.5243    0.0000 </r>
       <r>   42.5243    0.0000 </r>
       <r>   42.7858    0.0000 </r>
       <r>   43.7223    0.0000 </r>
       <r>   43.7223    0.0000 </r>
       <r>   44.7315    0.0000 </r>
       <r>   48.1222    0.0000 </r>
       <r>   48.1243    0.0000 </r>
       <r>   49.4536    0.0000 </r>
       <r>   49.4578    0.0000 </r>
       <r>   50.2407    0.0000 </r>
       <r>   52.3966    0.0000 </r>
       <r>   52.9007    0.0000 </r>
       <r>   52.9194    0.0000 </r>
       <r>   54.2549    0.0000 </r>
       <r>   54.3767    0.0000 </r>
       <r>   54.8335    0.0000 </r>
       <r>   56.2014    0.0000 </r>
       <r>   56.9310    0.0000 </r>
       <r>   58.3036    0.0000 </r>
      </set>
      <set comment="kpoint 5">
       <r>   -8.4956    1.0000 </r>
       <r>    0.6361    1.0000 </r>
       <r>    2.2464    1.0000 </r>
       <r>    2.2464    1.0000 </r>
       <r>    5.2927    0.0000 </r>
       <r>    6.5407    0.0000 </r>
       <r>    8.0435    0.0000 </r>
       <r>    8.0435    0.0000 </r>
       <r>   10.7184    0.0000 </r>
       <r>   12.2710    0.0000 </r>
       <r>   13.6727    0.0000 </r>
       <r>   15.5514    0.0000 </r>
       <r>   15.5514    0.0000 </r>
       <r>   16.3992    0.0000 </r>
       <r>   21.2953    0.0000 </r>
       <r>   23.5850    0.0000 </r>
       <r>   23.5850    0.0000 </r>
       <r>   24.7868    0.0000 </r>
       <r>   25.2815    0.0000 </r>
       <r>   28.7047    0.0000 </r>
       <r>   29.9328    0.0000 </r>
       <r>   29.9328    0.0000 </r>
       <r>   31.4030    0.0000 </r>
       <r>   34.8154    0.0000 </r>
       <r>   34.8154    0.0000 </r>
       <r>   35.0563    0.0000 </r>
       <r>   35.0563    0.0000 </r>
       <r>   35.4122    0.0000 </r>
       <r>   35.4634    0.0000 </r>
       <r>   36.3034    0.0000 </r>
       <r>   37.8243    0.0000 </r>
       <r>   40.4166    0.0000 </r>
       <r>   40.4166    0.0000 </r>
       <r>   40.6372    0.0000 </r>
       <r>   41.2969    0.0000 </r>
       <r>   41.6290    0.0000 </r>
       <r>   42.0627    0.0000 </r>
       <r>   42.0628    0.0000 </r>
       <r>   42.6762    0.0000 </r>
       <r>   45.2123    0.0000 </r>
       <r>   45.6496    0.0000 </r>
       <r>   45.6510    0.0000 </r>
       <r>   46.3050    0.0000 </r>
       <r>   47.2509    0.0000 </r>
       <r>   47.8992    0.0000 </r>
       <r>   47.9310    0.0000 </r>
       <r>   48.6726    0.0000 </r>
       <r>   48.7042    0.0000 </r>
       <r>   48.8937    0.0000 </r>
       <r>   49.9418    0.0000 </r>
       <r>   50.3281    0.0000 </r>
       <r>   51.5770    0.0000 </r>
       <r>   53.0743    0.0000 </r>
       <r>   53.2403    0.0000 </r>
      </set>
      <set comment="kpoint 6">
       <r>   -7.7441    1.0000 </r>
       <r>   -1.6477    1.0000 </r>
       <r>    1.2955    1.0000 </r>
       <r>    1.6234    1.0000 </r>
       <r>    5.5178    0.0000 </r>
       <r>    6.8596    0.0000 </r>
       <r>    8.6890    0.0000 </r>
       <r>    8.9397    0.0000 </r>
       <r>   12.2553    0.0000 </r>
       <r>   13.5326    0.0000 </r>
       <r>   14.0114    0.0000 </r>
       <r>   15.8545    0.0000 </r>
       <r>   18.2190    0.0000 </r>
       <r>   19.4221    0.0000 </r>
       <r>   19.7507    0.0000 </r>
       <r>   20.0313    0.0000 </r>
       <r>   23.9228    0.0000 </r>
       <r>   24.8554    0.0000 </r>
       <r>   25.0300    0.0000 </r>
       <r>   26.3760    0.0000 </r>
       <r>   29.0885    0.0000 </r>
       <r>   30.5607    0.0000 </r>
       <r>   30.9441    0.0000 </r>
       <r>   32.1840    0.0000 </r>
       <r>   32.2190    0.0000 </r>
       <r>   33.3650    0.0000 </r>
       <r>   34.8624    0.0000 </r>
       <r>   34.9422    0.0000 </r>
       <r>   35.6278    0.0000 </r>
       <r>   35.9092    0.0000 </r>
       <r>   37.7416    0.0000 </r>
       <r>   37.8846    0.0000 </r>
       <r>   38.9622    0.0000 </r>
       <r>   39.8713    0.0000 </r>
       <r>   39.8926    0.0000 </r>
       <r>   41.2763    0.0000 </r>
       <r>   42.4699    0.0000 </r>
       <r>   43.5797    0.0000 </r>
       <r>   44.6851    0.0000 </r>
       <r>   44.8528    0.0000 </r>
       <r>   45.4854    0.0000 </r>
       <r>   45.8209    0.0000 </r>
       <r>   46.4836    0.0000 </r>
       <r>   47.4739    0.0000 </r>
       <r>   48.2335    0.0000 </r>
       <r>   48.6584    0.0000 </r>
       <r>   51.0790    0.0000 </r>
       <r>   51.6325    0.0000 </r>
       <r>   51.7433    0.0000 </r>
       <r>   52.4168    0.0000 </r>
       <r>   54.0726    0.0000 </r>
       <r>   55.9148    0.0000 </r>
       <r>   57.9350    0.0000 </r>
       <r>   58.7731    0.0000 </r>
      </set>
      <set comment="kpoint 7">
       <r>   -6.6807    1.0000 </r>
       <r>   -3.6612    1.0000 </r>
       <r>    0.4775    1.0000 </r>
       <r>    1.5499    1.0000 </r>
       <r>    5.4072    0.0000 </r>
       <r>    7.5208    0.0000 </r>
       <r>    8.6664    0.0000 </r>
       <r>   10.1545    0.0000 </r>
       <r>   13.0259    0.0000 </r>
       <r>   14.8518    0.0000 </r>
       <r>   14.9565    0.0000 </r>
       <r>   15.5774    0.0000 </r>
       <r>   16.6096    0.0000 </r>
       <r>   20.0106    0.0000 </r>
       <r>   21.6540    0.0000 </r>
       <r>   22.5328    0.0000 </r>
       <r>   23.7351    0.0000 </r>
       <r>   24.5397    0.0000 </r>
       <r>   25.4649    0.0000 </r>
       <r>   26.4688    0.0000 </r>
       <r>   26.9603    0.0000 </r>
       <r>   29.3331    0.0000 </r>
       <r>   29.3900    0.0000 </r>
       <r>   30.4251    0.0000 </r>
       <r>   30.5864    0.0000 </r>
       <r>   31.4276    0.0000 </r>
       <r>   32.3905    0.0000 </r>
       <r>   32.9683    0.0000 </r>
       <r>   34.8287    0.0000 </r>
       <r>   36.1456    0.0000 </r>
       <r>   36.3951    0.0000 </r>
       <r>   37.3854    0.0000 </r>
       <r>   38.5048    0.0000 </r>
       <r>   39.4382    0.0000 </r>
       <r>   40.1805    0.0000 </r>
       <r>   42.0801    0.0000 </r>
       <r>   42.9584    0.0000 </r>
       <r>   44.2981    0.0000 </r>
       <r>   46.3468    0.0000 </r>
       <r>   46.9720    0.0000 </r>
       <r>   47.1476    0.0000 </r>
       <r>   47.7749    0.0000 </r>
       <r>   48.4819    0.0000 </r>
       <r>   48.8465    0.0000 </r>
       <r>   49.1973    0.0000 </r>
       <r>   50.9221    0.0000 </r>
       <r>   51.1224    0.0000 </r>
       <r>   52.9507    0.0000 </r>
       <r>   53.2083    0.0000 </r>
       <r>   53.8654    0.0000 </r>
       <r>   56.0371    0.0000 </r>
       <r>   56.3130    0.0000 </r>
       <r>   57.8081    0.0000 </r>
       <r>   59.5108    0.0000 </r>
      </set>
      <set comment="kpoint 8">
       <r>   -7.0179    1.0000 </r>
       <r>   -3.1151    1.0000 </r>
       <r>    0.2602    1.0000 </r>
       <r>    2.0387    1.0000 </r>
       <r>    5.5516    0.0000 </r>
       <r>    7.7893    0.0000 </r>
       <r>    8.1216    0.0000 </r>
       <r>   10.4733    0.0000 </r>
       <r>   12.1201    0.0000 </r>
       <r>   12.9053    0.0000 </r>
       <r>   14.8410    0.0000 </r>
       <r>   16.4898    0.0000 </r>
       <r>   18.2977    0.0000 </r>
       <r>   19.9860    0.0000 </r>
       <r>   20.0462    0.0000 </r>
       <r>   21.6362    0.0000 </r>
       <r>   24.1958    0.0000 </r>
       <r>   25.5037    0.0000 </r>
       <r>   26.1721    0.0000 </r>
       <r>   26.4191    0.0000 </r>
       <r>   27.5839    0.0000 </r>
       <r>   27.5998    0.0000 </r>
       <r>   30.3474    0.0000 </r>
       <r>   30.7023    0.0000 </r>
       <r>   31.2522    0.0000 </r>
       <r>   31.4226    0.0000 </r>
       <r>   31.4553    0.0000 </r>
       <r>   35.1083    0.0000 </r>
       <r>   35.7570    0.0000 </r>
       <r>   36.3315    0.0000 </r>
       <r>   36.6807    0.0000 </r>
       <r>   37.9111    0.0000 </r>
       <r>   38.2492    0.0000 </r>
       <r>   39.1001    0.0000 </r>
       <r>   39.9377    0.0000 </r>
       <r>   41.9279    0.0000 </r>
       <r>   42.5726    0.0000 </r>
       <r>   43.1346    0.0000 </r>
       <r>   43.4240    0.0000 </r>
       <r>   45.9207    0.0000 </r>
       <r>   47.6299    0.0000 </r>
       <r>   47.9970    0.0000 </r>
       <r>   49.1376    0.0000 </r>
       <r>   49.8306    0.0000 </r>
       <r>   49.9913    0.0000 </r>
       <r>   50.8630    0.0000 </r>
       <r>   52.1218    0.0000 </r>
       <r>   53.0452    0.0000 </r>
       <r>   53.2020    0.0000 </r>
       <r>   53.8743    0.0000 </r>
       <r>   54.6560    0.0000 </r>
       <r>   55.7051    0.0000 </r>
       <r>   56.6521    0.0000 </r>
       <r>   57.6618    0.0000 </r>
      </set>
      <set comment="kpoint 9">
       <r>   -8.0676    1.0000 </r>
       <r>   -0.9422    1.0000 </r>
       <r>    1.0143    1.0000 </r>
       <r>    2.8321    1.0000 </r>
       <r>    5.7320    0.0000 </r>
       <r>    7.2054    0.0000 </r>
       <r>    7.5018    0.0000 </r>
       <r>    8.8566    0.0000 </r>
       <r>   11.1348    0.0000 </r>
       <r>   13.1652    0.0000 </r>
       <r>   13.1840    0.0000 </r>
       <r>   15.5946    0.0000 </r>
       <r>   16.8706    0.0000 </r>
       <r>   19.3500    0.0000 </r>
       <r>   20.1726    0.0000 </r>
       <r>   22.4762    0.0000 </r>
       <r>   23.9192    0.0000 </r>
       <r>   24.5119    0.0000 </r>
       <r>   24.5513    0.0000 </r>
       <r>   26.4602    0.0000 </r>
       <r>   30.1686    0.0000 </r>
       <r>   30.7425    0.0000 </r>
       <r>   31.7353    0.0000 </r>
       <r>   32.8073    0.0000 </r>
       <r>   33.1884    0.0000 </r>
       <r>   33.8166    0.0000 </r>
       <r>   34.7076    0.0000 </r>
       <r>   35.6868    0.0000 </r>
       <r>   36.1996    0.0000 </r>
       <r>   36.5450    0.0000 </r>
       <r>   36.8364    0.0000 </r>
       <r>   38.4954    0.0000 </r>
       <r>   39.4313    0.0000 </r>
       <r>   39.7545    0.0000 </r>
       <r>   39.9982    0.0000 </r>
       <r>   40.6157    0.0000 </r>
       <r>   41.8494    0.0000 </r>
       <r>   42.1144    0.0000 </r>
       <r>   43.7147    0.0000 </r>
       <r>   44.7149    0.0000 </r>
       <r>   45.4112    0.0000 </r>
       <r>   46.0064    0.0000 </r>
       <r>   46.9544    0.0000 </r>
       <r>   48.0955    0.0000 </r>
       <r>   48.1957    0.0000 </r>
       <r>   48.9152    0.0000 </r>
       <r>   49.7390    0.0000 </r>
       <r>   49.7808    0.0000 </r>
       <r>   52.4375    0.0000 </r>
       <r>   53.4222    0.0000 </r>
       <r>   54.1526    0.0000 </r>
       <r>   54.8479    0.0000 </r>
       <r>   56.2678    0.0000 </r>
       <r>   57.4722    0.0000 </r>
      </set>
      <set comment="kpoint 10">
       <r>   -7.1773    1.0000 </r>
       <r>   -2.3879    1.0000 </r>
       <r>    0.9129    1.0000 </r>
       <r>    0.9129    1.0000 </r>
       <r>    4.4286   -0.0000 </r>
       <r>    5.7612    0.0000 </r>
       <r>   10.9608    0.0000 </r>
       <r>   10.9608    0.0000 </r>
       <r>   12.2910    0.0000 </r>
       <r>   15.0554    0.0000 </r>
       <r>   15.6281    0.0000 </r>
       <r>   18.3207    0.0000 </r>
       <r>   18.3207    0.0000 </r>
       <r>   18.8323    0.0000 </r>
       <r>   19.1991    0.0000 </r>
       <r>   19.1991    0.0000 </r>
       <r>   20.6169    0.0000 </r>
       <r>   21.8688    0.0000 </r>
       <r>   27.4504    0.0000 </r>
       <r>   28.2755    0.0000 </r>
       <r>   28.6149    0.0000 </r>
       <r>   28.6149    0.0000 </r>
       <r>   29.5202    0.0000 </r>
       <r>   30.4012    0.0000 </r>
       <r>   31.1619    0.0000 </r>
       <r>   31.1619    0.0000 </r>
       <r>   32.6671    0.0000 </r>
       <r>   36.4574    0.0000 </r>
       <r>   37.3308    0.0000 </r>
       <r>   37.3308    0.0000 </r>
       <r>   38.7405    0.0000 </r>
       <r>   39.3202    0.0000 </r>
       <r>   40.5398    0.0000 </r>
       <r>   40.5398    0.0000 </r>
       <r>   40.7660    0.0000 </r>
       <r>   40.8442    0.0000 </r>
       <r>   40.8442    0.0000 </r>
       <r>   42.8789    0.0000 </r>
       <r>   43.5988    0.0000 </r>
       <r>   43.7063    0.0000 </r>
       <r>   44.4109    0.0000 </r>
       <r>   44.4110    0.0000 </r>
       <r>   46.1744    0.0000 </r>
       <r>   49.0122    0.0000 </r>
       <r>   50.3942    0.0000 </r>
       <r>   50.4052    0.0000 </r>
       <r>   51.5698    0.0000 </r>
       <r>   52.3503    0.0000 </r>
       <r>   53.1637    0.0000 </r>
       <r>   53.2777    0.0000 </r>
       <r>   53.7225    0.0000 </r>
       <r>   54.2095    0.0000 </r>
       <r>   57.8812    0.0000 </r>
       <r>   59.6539    0.0000 </r>
      </set>
      <set comment="kpoint 11">
       <r>   -6.1074    1.0000 </r>
       <r>   -3.8870    1.0000 </r>
       <r>   -0.1982    1.0000 </r>
       <r>    0.7514    1.0000 </r>
       <r>    4.8319   -0.0000 </r>
       <r>    6.4304    0.0000 </r>
       <r>   10.7463    0.0000 </r>
       <r>   11.2820    0.0000 </r>
       <r>   14.1157    0.0000 </r>
       <r>   15.3593    0.0000 </r>
       <r>   15.7096    0.0000 </r>
       <r>   17.2884    0.0000 </r>
       <r>   17.7575    0.0000 </r>
       <r>   19.8005    0.0000 </r>
       <r>   20.7312    0.0000 </r>
       <r>   21.4205    0.0000 </r>
       <r>   22.0842    0.0000 </r>
       <r>   23.0607    0.0000 </r>
       <r>   23.6503    0.0000 </r>
       <r>   26.1327    0.0000 </r>
       <r>   26.3079    0.0000 </r>
       <r>   26.6310    0.0000 </r>
       <r>   28.5727    0.0000 </r>
       <r>   30.1038    0.0000 </r>
       <r>   31.8193    0.0000 </r>
       <r>   31.8478    0.0000 </r>
       <r>   33.9786    0.0000 </r>
       <r>   34.0472    0.0000 </r>
       <r>   35.5663    0.0000 </r>
       <r>   36.3693    0.0000 </r>
       <r>   37.5087    0.0000 </r>
       <r>   38.3333    0.0000 </r>
       <r>   38.8677    0.0000 </r>
       <r>   39.2870    0.0000 </r>
       <r>   41.7357    0.0000 </r>
       <r>   41.8143    0.0000 </r>
       <r>   42.8001    0.0000 </r>
       <r>   43.7590    0.0000 </r>
       <r>   44.8024    0.0000 </r>
       <r>   45.0268    0.0000 </r>
       <r>   45.7343    0.0000 </r>
       <r>   47.9905    0.0000 </r>
       <r>   48.4030    0.0000 </r>
       <r>   49.1189    0.0000 </r>
       <r>   49.8747    0.0000 </r>
       <r>   50.7109    0.0000 </r>
       <r>   51.4022    0.0000 </r>
       <r>   53.1542    0.0000 </r>
       <r>   54.5775    0.0000 </r>
       <r>   54.8514    0.0000 </r>
       <r>   56.1186    0.0000 </r>
       <r>   57.0254    0.0000 </r>
       <r>   57.2361    0.0000 </r>
       <r>   57.8876    0.0000 </r>
      </set>
      <set comment="kpoint 12">
       <r>   -5.9649    1.0000 </r>
       <r>   -4.0413    1.0000 </r>
       <r>   -0.9077    1.0000 </r>
       <r>    1.2044    1.0000 </r>
       <r>    5.2307    0.0000 </r>
       <r>    9.4847    0.0000 </r>
       <r>   10.0974    0.0000 </r>
       <r>   10.1205    0.0000 </r>
       <r>   10.9727    0.0000 </r>
       <r>   12.7062    0.0000 </r>
       <r>   17.3288    0.0000 </r>
       <r>   17.7043    0.0000 </r>
       <r>   19.3266    0.0000 </r>
       <r>   20.6171    0.0000 </r>
       <r>   21.0923    0.0000 </r>
       <r>   22.1007    0.0000 </r>
       <r>   22.2144    0.0000 </r>
       <r>   24.1205    0.0000 </r>
       <r>   25.4890    0.0000 </r>
       <r>   25.8326    0.0000 </r>
       <r>   25.9124    0.0000 </r>
       <r>   26.2420    0.0000 </r>
       <r>   28.9116    0.0000 </r>
       <r>   29.7052    0.0000 </r>
       <r>   29.7936    0.0000 </r>
       <r>   31.7528    0.0000 </r>
       <r>   31.7534    0.0000 </r>
       <r>   32.2274    0.0000 </r>
       <r>   36.7706    0.0000 </r>
       <r>   37.2986    0.0000 </r>
       <r>   37.3541    0.0000 </r>
       <r>   37.6784    0.0000 </r>
       <r>   37.9667    0.0000 </r>
       <r>   38.4714    0.0000 </r>
       <r>   41.4192    0.0000 </r>
       <r>   41.8161    0.0000 </r>
       <r>   43.0433    0.0000 </r>
       <r>   45.0462    0.0000 </r>
       <r>   45.4688    0.0000 </r>
       <r>   47.3688    0.0000 </r>
       <r>   47.8428    0.0000 </r>
       <r>   48.5918    0.0000 </r>
       <r>   49.1192    0.0000 </r>
       <r>   50.4120    0.0000 </r>
       <r>   50.4611    0.0000 </r>
       <r>   51.1152    0.0000 </r>
       <r>   51.2973    0.0000 </r>
       <r>   52.6150    0.0000 </r>
       <r>   53.4291    0.0000 </r>
       <r>   53.7523    0.0000 </r>
       <r>   55.0868    0.0000 </r>
       <r>   55.5556    0.0000 </r>
       <r>   56.2657    0.0000 </r>
       <r>   56.7980    0.0000 </r>
      </set>
      <set comment="kpoint 13">
       <r>   -5.0782    1.0000 </r>
       <r>   -5.0782    1.0000 </r>
       <r>    0.4369    1.0000 </r>
       <r>    0.4369    1.0000 </r>
       <r>    4.5439   -0.0000 </r>
       <r>    4.5439   -0.0000 </r>
[...]
       <r>    40.9498     0.7851    34.4262 </r>
       <r>    41.2013    -0.0146    34.4226 </r>
       <r>    41.4528     0.7667    34.6154 </r>
       <r>    41.7043     1.3446    34.9536 </r>
       <r>    41.9559     2.3130    35.5354 </r>
       <r>    42.2074     1.7680    35.9800 </r>
       <r>    42.4589     0.3175    36.0599 </r>
       <r>    42.7104     1.4392    36.4219 </r>
       <r>    42.9619     1.7437    36.8605 </r>
       <r>    43.2135     1.0052    37.1133 </r>
       <r>    43.4650     1.2611    37.4305 </r>
       <r>    43.7165     0.9303    37.6645 </r>
       <r>    43.9680     1.2732    37.9847 </r>
       <r>    44.2196     0.0672    38.0016 </r>
       <r>    44.4711     2.1089    38.5320 </r>
       <r>    44.7226     1.9872    39.0319 </r>
       <r>    44.9741     1.2864    39.3554 </r>
       <r>    45.2256     1.2070    39.6590 </r>
       <r>    45.4772     0.6312    39.8178 </r>
       <r>    45.7287     1.1797    40.1145 </r>
       <r>    45.9802     1.3268    40.4482 </r>
       <r>    46.2317     0.7218    40.6298 </r>
       <r>    46.4833     1.8266    41.0892 </r>
       <r>    46.7348     0.2711    41.1574 </r>
       <r>    46.9863     0.5474    41.2951 </r>
       <r>    47.2378     1.4368    41.6565 </r>
       <r>    47.4893     0.6274    41.8143 </r>
       <r>    47.7409     0.5765    41.9593 </r>
       <r>    47.9924     1.7291    42.3942 </r>
       <r>    48.2439     1.4016    42.7467 </r>
       <r>    48.4954     1.7368    43.1836 </r>
       <r>    48.7470     0.9960    43.4341 </r>
       <r>    48.9985     1.2620    43.7515 </r>
       <r>    49.2500     2.0615    44.2700 </r>
       <r>    49.5015     0.2269    44.3271 </r>
       <r>    49.7531     1.4584    44.6939 </r>
       <r>    50.0046     2.0480    45.2090 </r>
       <r>    50.2561     0.3751    45.3034 </r>
       <r>    50.5076     0.9248    45.5360 </r>
       <r>    50.7591     1.5930    45.9366 </r>
       <r>    51.0107     1.1789    46.2332 </r>
       <r>    51.2622     1.8391    46.6957 </r>
       <r>    51.5137     1.2028    46.9983 </r>
       <r>    51.7652     1.3392    47.3351 </r>
       <r>    52.0168     0.2858    47.4070 </r>
       <r>    52.2683     0.4775    47.5271 </r>
       <r>    52.5198     1.8942    48.0035 </r>
       <r>    52.7713     0.6511    48.1673 </r>
       <r>    53.0228     1.1086    48.4461 </r>
       <r>    53.2744     1.8582    48.9135 </r>
       <r>    53.5259     0.8963    49.1389 </r>
       <r>    53.7774     0.2794    49.2092 </r>
       <r>    54.0289     1.5862    49.6081 </r>
       <r>    54.2805     1.0640    49.8757 </r>
       <r>    54.5320     0.9010    50.1024 </r>
       <r>    54.7835     1.2835    50.4252 </r>
       <r>    55.0350     0.1101    50.4529 </r>
       <r>    55.2865     0.9521    50.6924 </r>
       <r>    55.5381     0.5463    50.8298 </r>
       <r>    55.7896     1.3650    51.1731 </r>
       <r>    56.0411     0.4850    51.2951 </r>
       <r>    56.2926     1.5961    51.6965 </r>
       <r>    56.5442     0.9519    51.9360 </r>
       <r>    56.7957     0.8057    52.1386 </r>
       <r>    57.0472     1.2687    52.4577 </r>
       <r>    57.2987     0.8114    52.6618 </r>
       <r>    57.5502     0.4901    52.7851 </r>
       <r>    57.8018     0.4412    52.8960 </r>
       <r>    58.0533     1.6483    53.3106 </r>
       <r>    58.3048     1.4567    53.6770 </r>
       <r>    58.5563     0.3822    53.7731 </r>
       <r>    58.8079     0.1227    53.8040 </r>
       <r>    59.0594     0.5951    53.9537 </r>
       <r>    59.3109     0.1777    53.9984 </r>
       <r>    59.5624     0.0063    54.0000 </r>
       <r>    59.8139     0.0000    54.0000 </r>
       <r>    60.0655     0.0000    54.0000 </r>
       <r>    60.3170     0.0000    54.0000 </r>
       <r>    60.5685     0.0000    54.0000 </r>
       <r>    60.8200     0.0000    54.0000 </r>
       <r>    61.0716     0.0000    54.0000 </r>
       <r>    61.3231     0.0000    54.0000 </r>
       <r>    61.5746     0.0000    54.0000 </r>
       <r>    61.8261     0.0000    54.0000 </r>
       <r>    62.0776     0.0000    54.0000 </r>
       <r>    62.3292     0.0000    54.0000 </r>
       <r>    62.5807     0.0000    54.0000 </r>
       <r>    62.8322     0.0000    54.0000 </r>
       <r>    63.0837     0.0000    54.0000 </r>
      </set>
      <set comment="spin 2">
       <r>   -12.3730     0.0000     0.0000 </r>
       <r>   -12.1215     0.0000     0.0000 </r>
       <r>   -11.8699     0.0000     0.0000 </r>
       <r>   -11.6184     0.0000     0.0000 </r>
       <r>   -11.3669     0.0000     0.0000 </r>
       <r>   -11.1154     0.0000     0.0000 </r>
       <r>   -10.8639     0.0000     0.0000 </r>
       <r>   -10.6123     0.0000     0.0000 </r>
       <r>   -10.3608     0.0000     0.0000 </r>
       <r>   -10.1093     0.0000     0.0000 </r>
       <r>    -9.8578     0.0000     0.0000 </r>
       <r>    -9.6062     0.0000     0.0000 </r>
       <r>    -9.3547    -0.0000    -0.0000 </r>
       <r>    -9.1032    -0.0000    -0.0000 </r>
       <r>    -8.8517     0.0187     0.0047 </r>
       <r>    -8.6002     0.0963     0.0289 </r>
       <r>    -8.3486     0.1611     0.0694 </r>
       <r>    -8.0971     0.0186     0.0741 </r>
       <r>    -7.8456     0.1990     0.1242 </r>
       <r>    -7.5941     0.5948     0.2738 </r>
       <r>    -7.3425    -0.0025     0.2731 </r>
       <r>    -7.0910     0.0994     0.2982 </r>
       <r>    -6.8395     0.6832     0.4700 </r>
       <r>    -6.5880     0.7322     0.6542 </r>
       <r>    -6.3364    -0.0055     0.6528 </r>
       <r>    -6.0849     0.3708     0.7461 </r>
       <r>    -5.8334     0.7342     0.9307 </r>
       <r>    -5.5819    -0.0006     0.9306 </r>
       <r>    -5.3304    -0.0000     0.9306 </r>
       <r>    -5.0788     0.0437     0.9416 </r>
       <r>    -4.8273     0.5085     1.0694 </r>
       <r>    -4.5758    -0.0000     1.0694 </r>
       <r>    -4.3243    -0.0000     1.0694 </r>
       <r>    -4.0727     0.2751     1.1386 </r>
       <r>    -3.8212     0.9203     1.3701 </r>
       <r>    -3.5697     0.4303     1.4783 </r>
       <r>    -3.3182    -0.0059     1.4769 </r>
       <r>    -3.0667     0.4475     1.5894 </r>
       <r>    -2.8151     0.4361     1.6991 </r>
       <r>    -2.5636    -0.0000     1.6991 </r>
       <r>    -2.3121     0.2651     1.7657 </r>
       <r>    -2.0606    -0.0074     1.7639 </r>
       <r>    -1.8090    -0.0000     1.7639 </r>
       <r>    -1.5575     0.4481     1.8766 </r>
       <r>    -1.3060    -0.0063     1.8750 </r>
       <r>    -1.0545    -0.0008     1.8748 </r>
       <r>    -0.8030     0.4439     1.9865 </r>
       <r>    -0.5514     0.4271     2.0939 </r>
       <r>    -0.2999     0.0074     2.0957 </r>
       <r>    -0.0484     1.3365     2.4319 </r>
       <r>     0.2031    -0.0204     2.4267 </r>
       <r>     0.4547     0.6111     2.5804 </r>
       <r>     0.7062     1.1089     2.8594 </r>
       <r>     0.9577     0.6458     3.0218 </r>
       <r>     1.2092     0.7898     3.2204 </r>
       <r>     1.4607     0.5342     3.3548 </r>
       <r>     1.7123     0.8970     3.5804 </r>
       <r>     1.9638    -0.0190     3.5756 </r>
       <r>     2.2153     0.6176     3.7310 </r>
       <r>     2.4668     0.5001     3.8568 </r>
       <r>     2.7184    -0.0017     3.8563 </r>
       <r>     2.9699     0.2184     3.9113 </r>
       <r>     3.2214     0.2976     3.9861 </r>
       <r>     3.4729    -0.0018     3.9857 </r>
       <r>     3.7244     0.0570     4.0000 </r>
       <r>     3.9760    -0.0003     3.9999 </r>
       <r>     4.2275     0.0879     4.0220 </r>
       <r>     4.4790     0.2611     4.0877 </r>
       <r>     4.7305     0.1055     4.1143 </r>
       <r>     4.9821     0.5949     4.2639 </r>
       <r>     5.2336     0.1174     4.2934 </r>
       <r>     5.4851     0.6771     4.4637 </r>
       <r>     5.7366     1.0046     4.7164 </r>
       <r>     5.9881     0.1888     4.7639 </r>
       <r>     6.2397     0.0570     4.7782 </r>
       <r>     6.4912     0.9037     5.0055 </r>
       <r>     6.7427     0.5209     5.1366 </r>
       <r>     6.9942     1.5866     5.5356 </r>
       <r>     7.2458     0.2603     5.6011 </r>
       <r>     7.4973     1.0522     5.8657 </r>
       <r>     7.7488     0.5003     5.9916 </r>
       <r>     8.0003     0.5824     6.1380 </r>
       <r>     8.2519     1.1081     6.4168 </r>
       <r>     8.5034    -0.0004     6.4167 </r>
       <r>     8.7549     0.9040     6.6440 </r>
       <r>     9.0064     0.6571     6.8093 </r>
       <r>     9.2579    -0.0150     6.8056 </r>
       <r>     9.5095     0.1915     6.8537 </r>
       <r>     9.7610     0.0364     6.8629 </r>
       <r>    10.0125     0.8712     7.0820 </r>
       <r>    10.2640     0.9242     7.3145 </r>
       <r>    10.5156     0.8668     7.5325 </r>
       <r>    10.7671     0.9614     7.7743 </r>
       <r>    11.0186     0.7068     7.9521 </r>
       <r>    11.2701     0.3438     8.0386 </r>
       <r>    11.5216     0.3068     8.1157 </r>
       <r>    11.7732     0.2620     8.1816 </r>
       <r>    12.0247     0.4688     8.2996 </r>
       <r>    12.2762     1.1985     8.6010 </r>
       <r>    12.5277     0.2058     8.6528 </r>
       <r>    12.7793     0.5230     8.7843 </r>
       <r>    13.0308     0.8060     8.9870 </r>
       <r>    13.2823     1.1043     9.2648 </r>
       <r>    13.5338     0.2262     9.3217 </r>
       <r>    13.7853     0.7599     9.5128 </r>
       <r>    14.0369     0.5273     9.6455 </r>
       <r>    14.2884     0.5072     9.7730 </r>
       <r>    14.5399     0.0725     9.7913 </r>
       <r>    14.7914     0.4756     9.9109 </r>
       <r>    15.0430     1.6117    10.3163 </r>
       <r>    15.2945     0.0507    10.3290 </r>
       <r>    15.5460     1.1380    10.6152 </r>
       <r>    15.7975     1.7426    11.0535 </r>
       <r>    16.0490     0.4626    11.1699 </r>
       <r>    16.3006     0.7128    11.3492 </r>
       <r>    16.5521     1.1137    11.6293 </r>
       <r>    16.8036     0.8771    11.8499 </r>
       <r>    17.0551     0.9693    12.0937 </r>
       <r>    17.3067     0.3754    12.1881 </r>
       <r>    17.5582     0.7802    12.3844 </r>
       <r>    17.8097     0.7483    12.5726 </r>
       <r>    18.0612    -0.0125    12.5694 </r>
       <r>    18.3127     0.8560    12.7847 </r>
       <r>    18.5643     0.2484    12.8472 </r>
       <r>    18.8158     0.0262    12.8538 </r>
       <r>    19.0673     0.0841    12.8750 </r>
       <r>    19.3188     0.4605    12.9908 </r>
       <r>    19.5704     1.1515    13.2804 </r>
       <r>    19.8219     1.0360    13.5410 </r>
       <r>    20.0734     2.8580    14.2599 </r>
       <r>    20.3249     0.2219    14.3157 </r>
       <r>    20.5764     1.0589    14.5820 </r>
       <r>    20.8280     0.7546    14.7718 </r>
       <r>    21.0795     0.8058    14.9745 </r>
       <r>    21.3310     0.7002    15.1506 </r>
       <r>    21.5825     0.4230    15.2570 </r>
       <r>    21.8341     1.3569    15.5983 </r>
       <r>    22.0856     1.2785    15.9198 </r>
       <r>    22.3371     0.9238    16.1522 </r>
       <r>    22.5886     0.8038    16.3544 </r>
       <r>    22.8402     0.0487    16.3666 </r>
       <r>    23.0917     0.7379    16.5522 </r>
       <r>    23.3432     0.4847    16.6741 </r>
       <r>    23.5947     0.1782    16.7190 </r>
       <r>    23.8462     1.0100    16.9730 </r>
       <r>    24.0978     1.0863    17.2462 </r>
       <r>    24.3493     0.9217    17.4781 </r>
       <r>    24.6008     1.0824    17.7503 </r>
       <r>    24.8523     0.5500    17.8886 </r>
       <r>    25.1039     1.9128    18.3697 </r>
       <r>    25.3554     0.3364    18.4544 </r>
       <r>    25.6069     1.5575    18.8461 </r>
       <r>    25.8584     0.7608    19.0375 </r>
       <r>    26.1099     1.2108    19.3420 </r>
       <r>    26.3615     1.6051    19.7457 </r>
       <r>    26.6130     1.5298    20.1305 </r>
       <r>    26.8645     0.7736    20.3251 </r>
       <r>    27.1160     0.8979    20.5509 </r>
       <r>    27.3676     0.4450    20.6629 </r>
       <r>    27.6191     0.8856    20.8856 </r>
       <r>    27.8706     0.0972    20.9100 </r>
       <r>    28.1221     0.8913    21.1342 </r>
       <r>    28.3736     0.6106    21.2878 </r>
       <r>    28.6252     0.5972    21.4380 </r>
       <r>    28.8767     0.6732    21.6074 </r>
       <r>    29.1282     1.5964    22.0089 </r>
       <r>    29.3797     0.6095    22.1622 </r>
       <r>    29.6313     1.0243    22.4198 </r>
       <r>    29.8828     0.4451    22.5318 </r>
       <r>    30.1343     0.8951    22.7569 </r>
       <r>    30.3858     1.4703    23.1267 </r>
       <r>    30.6373     1.8936    23.6030 </r>
       <r>    30.8889     1.1224    23.8853 </r>
       <r>    31.1404     0.8182    24.0911 </r>
       <r>    31.3919     1.1628    24.3836 </r>
       <r>    31.6434     1.7649    24.8275 </r>
       <r>    31.8950     2.2521    25.3940 </r>
       <r>    32.1465    -0.0204    25.3888 </r>
       <r>    32.3980     1.5072    25.7679 </r>
       <r>    32.6495     0.6158    25.9228 </r>
       <r>    32.9010     0.3007    25.9985 </r>
       <r>    33.1526     1.3379    26.3350 </r>
       <r>    33.4041     1.2497    26.6493 </r>
       <r>    33.6556     0.8794    26.8705 </r>
       <r>    33.9071     0.2097    26.9233 </r>
       <r>    34.1587     0.8940    27.1481 </r>
       <r>    34.4102     0.4442    27.2598 </r>
       <r>    34.6617     0.4324    27.3686 </r>
       <r>    34.9132     1.9834    27.8675 </r>
       <r>    35.1647     1.4905    28.2423 </r>
       <r>    35.4163     0.2038    28.2936 </r>
       <r>    35.6678     1.1007    28.5705 </r>
       <r>    35.9193     1.9757    29.0674 </r>
       <r>    36.1708     0.8132    29.2719 </r>
       <r>    36.4224     2.2354    29.8342 </r>
       <r>    36.6739     1.2643    30.1522 </r>
       <r>    36.9254     0.8707    30.3712 </r>
       <r>    37.1769     0.2902    30.4442 </r>
       <r>    37.4285     1.2392    30.7559 </r>
       <r>    37.6800     0.5559    30.8957 </r>
       <r>    37.9315     1.4912    31.2707 </r>
       <r>    38.1830     0.5654    31.4130 </r>
       <r>    38.4345     1.4648    31.7814 </r>
       <r>    38.6861     1.5095    32.1611 </r>
       <r>    38.9376     1.5868    32.5602 </r>
       <r>    39.1891     1.0219    32.8172 </r>
       <r>    39.4406     1.2515    33.1320 </r>
       <r>    39.6922     0.3798    33.2275 </r>
       <r>    39.9437     1.6929    33.6533 </r>
       <r>    40.1952     1.4253    34.0118 </r>
       <r>    40.4467     0.3010    34.0875 </r>
       <r>    40.6982     0.5615    34.2288 </r>
       <r>    40.9498     0.7851    34.4262 </r>
       <r>    41.2013    -0.0146    34.4226 </r>
       <r>    41.4528     0.7667    34.6154 </r>
       <r>    41.7043     1.3446    34.9536 </r>
       <r>    41.9559     2.3131    35.5354 </r>
       <r>    42.2074     1.7679    35.9800 </r>
       <r>    42.4589     0.3174    36.0599 </r>
       <r>    42.7104     1.4393    36.4219 </r>
       <r>    42.9619     1.7436    36.8605 </r>
       <r>    43.2135     1.0053    37.1133 </r>
       <r>    43.4650     1.2611    37.4305 </r>
       <r>    43.7165     0.9304    37.6645 </r>
       <r>    43.9680     1.2731    37.9847 </r>
       <r>    44.2196     0.0679    38.0018 </r>
       <r>    44.4711     2.1083    38.5321 </r>
       <r>    44.7226     1.9872    39.0319 </r>
       <r>    44.9741     1.2866    39.3555 </r>
       <r>    45.2256     1.2056    39.6587 </r>
       <r>    45.4772     0.6356    39.8186 </r>
       <r>    45.7287     1.1762    40.1144 </r>
       <r>    45.9802     1.3271    40.4482 </r>
       <r>    46.2317     0.7217    40.6297 </r>
       <r>    46.4833     1.8300    41.0900 </r>
       <r>    46.7348     0.2679    41.1574 </r>
       <r>    46.9863     0.5480    41.2953 </r>
       <r>    47.2378     1.4410    41.6577 </r>
       <r>    47.4893     0.6243    41.8147 </r>
       <r>    47.7409     0.5735    41.9590 </r>
       <r>    47.9924     1.7316    42.3945 </r>
       <r>    48.2439     1.4034    42.7475 </r>
       <r>    48.4954     1.7379    43.1846 </r>
       <r>    48.7470     1.0029    43.4369 </r>
       <r>    48.9985     1.2574    43.7531 </r>
       <r>    49.2500     2.0574    44.2706 </r>
       <r>    49.5015     0.2314    44.3288 </r>
       <r>    49.7531     1.4027    44.6816 </r>
       <r>    50.0046     2.2060    45.2365 </r>
       <r>    50.2561     0.2517    45.2998 </r>
       <r>    50.5076     0.9320    45.5342 </r>
       <r>    50.7591     1.5594    45.9264 </r>
       <r>    51.0107     1.2164    46.2323 </r>
       <r>    51.2622     1.8605    46.7003 </r>
       <r>    51.5137     1.0988    46.9767 </r>
       <r>    51.7652     1.6309    47.3869 </r>
       <r>    52.0168     0.0817    47.4074 </r>
       <r>    52.2683     0.4721    47.5262 </r>
       <r>    52.5198     1.9869    48.0259 </r>
       <r>    52.7713     0.5551    48.1655 </r>
       <r>    53.0228     0.8219    48.3723 </r>
       <r>    53.2744     2.0905    48.8981 </r>
       <r>    53.5259     0.9364    49.1336 </r>
       <r>    53.7774     0.5564    49.2736 </r>
       <r>    54.0289     1.3758    49.6196 </r>
       <r>    54.2805     0.9742    49.8646 </r>
       <r>    54.5320     0.5354    49.9993 </r>
       <r>    54.7835     1.2944    50.3248 </r>
       <r>    55.0350     0.7892    50.5234 </r>
       <r>    55.2865     0.8371    50.7339 </r>
       <r>    55.5381     0.5448    50.8709 </r>
       <r>    55.7896     1.5045    51.2493 </r>
       <r>    56.0411     1.1260    51.5326 </r>
       <r>    56.2926     1.3060    51.8611 </r>
       <r>    56.5442     0.8823    52.0830 </r>
       <r>    56.7957     0.6716    52.2519 </r>
       <r>    57.0472     0.8546    52.4669 </r>
       <r>    57.2987     1.1444    52.7547 </r>
       <r>    57.5502     0.7212    52.9361 </r>
       <r>    57.8018     0.8046    53.1385 </r>
       <r>    58.0533     1.2726    53.4586 </r>
       <r>    58.3048     0.2371    53.5182 </r>
       <r>    58.5563     0.0565    53.5324 </r>
       <r>    58.8079     0.9033    53.7596 </r>
       <r>    59.0594     0.3411    53.8454 </r>
       <r>    59.3109     0.0624    53.8611 </r>
       <r>    59.5624     0.4527    53.9750 </r>
       <r>    59.8139     0.0995    54.0000 </r>
       <r>    60.0655     0.0000    54.0000 </r>
       <r>    60.3170     0.0000    54.0000 </r>
       <r>    60.5685     0.0000    54.0000 </r>
       <r>    60.8200     0.0000    54.0000 </r>
       <r>    61.0716     0.0000    54.0000 </r>
       <r>    61.3231     0.0000    54.0000 </r>
       <r>    61.5746     0.0000    54.0000 </r>
       <r>    61.8261     0.0000    54.0000 </r>
       <r>    62.0776     0.0000    54.0000 </r>
       <r>    62.3292     0.0000    54.0000 </r>
       <r>    62.5807     0.0000    54.0000 </r>
       <r>    62.8322     0.0000    54.0000 </r>
       <r>    63.0837     0.0000    54.0000 </r>
      </set>
     </set>
    </array>
   </total>
  </dos>
 </calculation>
 <structure name="finalpos" >
  <crystal>
   <varray name="basis" >
    <v>       0.00000000       2.81650000       2.81650000 </v>
    <v>       2.81650000       0.00000000       2.81650000 </v>
    <v>       2.81650000       2.81650000       0.00000000 </v>
   </varray>
   <i name="volume">     44.68474278 </i>
   <varray name="rec_basis" >
    <v>      -0.17752530       0.17752530       0.17752530 </v>
    <v>       0.17752530      -0.17752530       0.17752530 </v>
    <v>       0.17752530       0.17752530      -0.17752530 </v>
   </varray>
  </crystal>
  <varray name="positions" >
   <v>       0.00000000       0.00000000       0.00000000 </v>
   <v>       0.25000000       0.25000000       0.25000000 </v>
  </varray>
 </structure>
</modeling>
