unknown system                          
   1.00000000000000     
     0.000000    3.029200    3.029200
     3.029200    0.000000    3.029200
     3.029200    3.029200    0.000000
   In   As
     1     1
Direct
  0.000000  0.000000  0.000000
  0.250000  0.250000  0.250000
 
   36   36   36
 -3.8317     -3.2866     -1.7719     0.39127      2.7847      5.0147      6.8030      8.0199      8.6657      8.8293    
  8.6473      8.2769      7.8746      7.5740      7.3947      7.2834      7.2106      7.1668      7.1519      7.1668    
  7.2106      7.2834      7.3947      7.5740      7.8746      8.2769      8.6474      8.8293      8.6657      8.0198    
  6.8030      5.0148      2.7848     0.39130     -1.7719     -3.2866     -3.2866     -2.3298     -.60398      1.5748    
  3.8531      5.9256      7.5852      8.7342      9.3710      9.5699      9.4613      9.2078      8.9744      8.8605    
  8.8221      8.8119      8.8083      8.8062      8.8062      8.8083      8.8118      8.8221      8.8605      8.9744    
  9.2078      9.4613      9.5699      9.3709      8.7342      7.5852      5.9256      3.8531      1.5748     -.60398    
 -2.3298     -3.2866     -1.7719     -.60398      1.1268      3.1601      5.2279      7.1006      8.6126      9.6748    
  10.280      10.502      10.483      10.395      10.392      10.478      10.586      10.676      10.733      10.752    
  10.733      10.676      10.586      10.478      10.392      10.395      10.483      10.502      10.280      9.6748    
  8.6126      7.1005      5.2279      3.1602      1.1268     -.60401     -1.7719     -2.1849     0.39127      1.5748    
  3.1601      4.9628      6.7874      8.4502      9.8030      10.761      11.328      11.598      11.731      11.899    
  12.166      12.457      12.711      12.892      12.985      12.985      12.892      12.711      12.457      12.165    
  11.899      11.731      11.598      11.328      10.761      9.8030      8.4502      6.7874      4.9628      3.1602    
  1.5748     0.39124     -.24233     -.24232      2.7847      3.8531      5.2279      6.7874      8.3787      9.8384    
  11.031      11.894      12.464      12.865      13.264      13.768      14.311      14.806      15.191      15.432    
  15.513      15.432      15.191      14.806      14.311      13.768      13.264      12.865      12.464      11.894    
  11.031      9.8384      8.3787      6.7874      5.2279      3.8531      2.7848      2.1092      1.8782      2.1092    
  5.0147      5.9256      7.1006      8.4502      9.8384      11.117      12.180      13.011      13.690      14.361    
  15.147      16.000      16.807      17.480      17.956      18.201      18.201      17.956      17.480      16.807    
  15.999      15.147      14.361      13.690      13.011      12.180      11.117      9.8384      8.4502      7.1006    
  5.9256      5.0148      4.4061      4.1044      4.1044      4.4061      6.8030      7.5852      8.6126      9.8030    
  11.031      12.180      13.198      14.125      15.074      16.164      17.361      18.536      19.569      20.364    
  20.862      21.031      20.862      20.364      19.569      18.536      17.360      16.164      15.074      14.125    
  13.198      12.180      11.031      9.8030      8.6126      7.5852      6.8030      6.2850      6.0021      5.9139    
  6.0021      6.2850      8.0199      8.7342      9.6748      10.761      11.894      13.011      14.125      15.322    
  16.705      18.247      19.812      21.251      22.434      23.263      23.682      23.682      23.263      22.434    
  21.251      19.812      18.247      16.705      15.322      14.125      13.011      11.894      10.761      9.6748    
  8.7342      8.0198      7.5548      7.3029      7.2005      7.2005      7.3030      7.5548      8.6657      9.3710    
  10.280      11.328      12.464      13.690      15.074      16.705      18.555      20.490      22.344      23.948    
  25.138      25.843      26.074      25.843      25.138      23.948      22.344      20.490      18.555      16.705    
  15.074      13.690      12.464      11.328      10.280      9.3709      8.6657      8.1958      7.9378      7.8278    
  7.8002      7.8278      7.9378      8.1958      8.8293      9.5699      10.502      11.598      12.865      14.361    
  16.164      18.247      20.490      22.723      24.742      26.308      27.321      27.804      27.804      27.321    
  26.308      24.742      22.723      20.490      18.247      16.164      14.361      12.865      11.598      10.502    
  9.5699      8.8293      8.3071      7.9956      7.8467      7.7953      7.7953      7.8467      7.9955      8.3071    
  8.6473      9.4613      10.483      11.731      13.264      15.147      17.361      19.812      22.344      24.742    
  26.703      28.058      28.817      29.056      28.817      28.059      26.704      24.742      22.344      19.812    
  17.361      15.147      13.264      11.731      10.483      9.4613      8.6473      8.0439      7.6464      7.4239    
  7.3243      7.2979      7.3243      7.4239      7.6464      8.0439      8.2769      9.2078      10.395      11.899    
  13.768      16.000      18.536      21.251      23.948      26.308      28.058      29.146      29.650      29.650    
  29.146      28.058      26.308      23.948      21.251      18.536      15.999      13.768      11.899      10.395    
  9.2078      8.2769      7.5713      7.0727      6.7569      6.5850      6.5135      6.5135      6.5849      6.7569    
  7.0728      7.5713      7.8746      8.9744      10.392      12.166      14.311      16.807      19.569      22.434    
  25.138      27.321      28.817      29.650      29.912      29.650      28.817      27.321      25.138      22.434    
  19.569      16.807      14.311      12.165      10.392      8.9744      7.8746      7.0408      6.4320      6.0164    
  5.7602      5.6268      5.5863      5.6268      5.7602      6.0164      6.4320      7.0408      7.5740      8.8605    
  10.478      12.457      14.806      17.480      20.364      23.263      25.843      27.804      29.056      29.650    
  29.650      29.056      27.804      25.843      23.263      20.364      17.480      14.806      12.457      10.478    
  8.8605      7.5740      6.5820      5.8469      5.3267      4.9825      4.7788      4.6857      4.6858      4.7789    
  4.9825      5.3267      5.8469      6.5820      7.3947      8.8221      10.586      12.711      15.191      17.956    
  20.862      23.682      26.074      27.804      28.817      29.146      28.817      27.804      26.074      23.682    
  20.862      17.956      15.191      12.711      10.586      8.8221      7.3947      6.2678      5.4056      4.7735    
  4.3359      4.0568      3.9040      3.8556      3.9040      4.0568      4.3359      4.7735      5.4056      6.2678    
  7.2834      8.8119      10.676      12.892      15.432      18.201      21.031      23.682      25.843      27.321    
  28.059      28.058      27.321      25.843      23.682      21.032      18.201      15.432      12.892      10.676    
  8.8118      7.2834      6.0586      5.1019      4.3795      3.8579      3.5044      3.2885      3.1869      3.1869    
  3.2885      3.5044      3.8580      4.3795      5.1019      6.0586      7.2106      8.8083      10.733      12.985    
  15.513      18.201      20.862      23.263      25.138      26.308      26.704      26.308      25.138      23.263    
  20.862      18.201      15.513      12.985      10.733      8.8083      7.2106      5.9154      4.8897      4.1001    
  3.5141      3.0998      2.8279      2.6748      2.6255      2.6748      2.8279      3.0998      3.5141      4.1001    
  4.8897      5.9154      7.1668      8.8062      10.752      12.985      15.432      17.956      20.364      22.434    
  23.948      24.742      24.742      23.948      22.434      20.364      17.956      15.432      12.985      10.752    
  8.8062      7.1668      5.8218      4.7445      3.9040      3.2684      2.8060      2.4876      2.2890      2.1938    
  2.1938      2.2890      2.4876      2.8060      3.2684      3.9039      4.7444      5.8217      7.1519      8.8062    
  10.733      12.892      15.191      17.480      19.569      21.251      22.344      22.723      22.344      21.251    
  19.569      17.480      15.191      12.892      10.733      8.8062      7.1519      5.7745      4.6579      3.7766    
  3.1009      2.5997      2.2430      2.0057      1.8700      1.8258      1.8700      2.0057      2.2430      2.5997    
  3.1009      3.7765      4.6579      5.7745      7.1668      8.8083      10.676      12.711      14.806      16.807    
  18.536      19.812      20.490      20.490      19.812      18.536      16.807      14.806      12.711      10.676    
  8.8083      7.1668      5.7745      4.6289      3.7133      3.0027      2.4677      2.0784      1.8081      1.6373    
  1.5545      1.5545      1.6373      1.8081      2.0783      2.4677      3.0027      3.7133      4.6289      5.7745    
  7.2106      8.8118      10.586      12.457      14.311      15.999      17.360      18.247      18.555      18.247    
  17.361      15.999      14.311      12.457      10.586      8.8118      7.2106      5.8218      4.6579      3.7133    
  2.9702      2.4032      1.9835      1.6837      1.4825      1.3662      1.3280      1.3662      1.4825      1.6837    
  1.9835      2.4032      2.9702      3.7133      4.6579      5.8217      7.2834      8.8221      10.478      12.165    
  13.768      15.147      16.164      16.705      16.705      16.164      15.147      13.768      12.165      10.478    
  8.8221      7.2834      5.9154      4.7445      3.7766      3.0027      2.4032      1.9525      1.6239      1.3946    
  1.2488      1.1776      1.1776      1.2488      1.3946      1.6239      1.9526      2.4032      3.0027      3.7765    
  4.7444      5.9154      7.3947      8.8605      10.392      11.899      13.264      14.361      15.074      15.322    
  15.074      14.361      13.264      11.899      10.392      8.8605      7.3947      6.0586      4.8897      3.9040    
  3.1009      2.4677      1.9835      1.6239      1.3663      1.1928      1.0923      1.0593      1.0923      1.1928    
  1.3663      1.6239      1.9835      2.4677      3.1009      3.9039      4.8897      6.0586      7.5740      8.9744    
  10.395      11.731      12.865      13.690      14.125      14.125      13.690      12.865      11.731      10.395    
  8.9744      7.5740      6.2678      5.1019      4.1001      3.2684      2.5997      2.0784      1.6837      1.3946    
  1.1928      1.0647      1.0025      1.0025      1.0647      1.1928      1.3946      1.6837      2.0783      2.5997    
  3.2684      4.1001      5.1019      6.2678      7.8746      9.2078      10.483      11.598      12.464      13.011    
  13.198      13.011      12.464      11.598      10.483      9.2078      7.8746      6.5820      5.4056      4.3795    
  3.5141      2.8060      2.2430      1.8081      1.4825      1.2488      1.0923      1.0025     0.97328      1.0025    
  1.0923      1.2488      1.4825      1.8081      2.2430      2.8060      3.5141      4.3795      5.4056      6.5820    
  8.2769      9.4613      10.502      11.328      11.894      12.180      12.180      11.894      11.328      10.502    
  9.4613      8.2769      7.0408      5.8469      4.7735      3.8579      3.0998      2.4876      2.0057      1.6373    
  1.3662      1.1776      1.0593      1.0025      1.0025      1.0593      1.1776      1.3662      1.6373      2.0057    
  2.4876      3.0998      3.8580      4.7735      5.8469      7.0407      8.6474      9.5699      10.280      10.761    
  11.031      11.117      11.031      10.761      10.280      9.5699      8.6473      7.5713      6.4320      5.3267    
  4.3359      3.5044      2.8279      2.2890      1.8700      1.5545      1.3280      1.1776      1.0923      1.0647    
  1.0923      1.1776      1.3280      1.5545      1.8700      2.2890      2.8279      3.5044      4.3359      5.3267    
  6.4320      7.5713      8.8293      9.3709      9.6748      9.8030      9.8384      9.8384      9.8030      9.6748    
  9.3709      8.8293      8.0439      7.0727      6.0164      4.9825      4.0568      3.2885      2.6748      2.1938    
  1.8258      1.5545      1.3662      1.2488      1.1928      1.1928      1.2488      1.3662      1.5545      1.8258    
  2.1938      2.6748      3.2885      4.0567      4.9825      6.0164      7.0728      8.0439      8.6657      8.7342    
  8.6126      8.4502      8.3787      8.4502      8.6126      8.7342      8.6657      8.3071      7.6464      6.7569    
  5.7602      4.7788      3.9040      3.1869      2.6255      2.1938      1.8700      1.6373      1.4825      1.3946    
  1.3663      1.3946      1.4825      1.6373      1.8700      2.1938      2.6255      3.1869      3.9040      4.7788    
  5.7602      6.7569      7.6464      8.3071      8.0198      7.5852      7.1005      6.7874      6.7874      7.1006    
  7.5852      8.0198      8.1958      7.9956      7.4239      6.5850      5.6268      4.6857      3.8556      3.1869    
  2.6748      2.2890      2.0057      1.8081      1.6837      1.6239      1.6239      1.6837      1.8081      2.0057    
  2.2890      2.6748      3.1869      3.8557      4.6858      5.6268      6.5849      7.4239      7.9956      8.1958    
  6.8030      5.9256      5.2279      4.9628      5.2279      5.9256      6.8030      7.5548      7.9378      7.8467    
  7.3243      6.5135      5.5863      4.6858      3.9040      3.2885      2.8279      2.4876      2.2430      2.0783    
  1.9835      1.9526      1.9835      2.0783      2.2430      2.4876      2.8279      3.2885      3.9040      4.6858    
  5.5863      6.5135      7.3243      7.8467      7.9378      7.5548      5.0148      3.8531      3.1602      3.1602    
  3.8531      5.0148      6.2850      7.3029      7.8278      7.7953      7.2979      6.5135      5.6268      4.7789    
  4.0568      3.5044      3.0998      2.8060      2.5997      2.4677      2.4032      2.4032      2.4677      2.5997    
  2.8060      3.0998      3.5044      4.0567      4.7788      5.6268      6.5135      7.2979      7.7953      7.8278    
  7.3029      6.2850      2.7848      1.5748      1.1268      1.5748      2.7848      4.4061      6.0021      7.2005    
  7.8002      7.7953      7.3243      6.5849      5.7602      4.9825      4.3359      3.8580      3.5141      3.2684    
  3.1009      3.0027      2.9702      3.0027      3.1009      3.2684      3.5141      3.8580      4.3359      4.9825    
  5.7602      6.5849      7.3243      7.7953      7.8002      7.2005      6.0021      4.4062     0.39130     -.60398    
 -.60401     0.39124      2.1092      4.1044      5.9139      7.2005      7.8278      7.8467      7.4239      6.7569    
  6.0164      5.3267      4.7735      4.3795      4.1001      3.9039      3.7765      3.7133      3.7133      3.7765    
  3.9039      4.1001      4.3795      4.7735      5.3267      6.0164      6.7569      7.4239      7.8467      7.8278    
  7.2005      5.9138      4.1044      2.1092     -1.7719     -2.3298     -1.7719     -.24233      1.8782      4.1044    
  6.0021      7.3030      7.9378      7.9955      7.6464      7.0728      6.4320      5.8469      5.4056      5.1019    
  4.8897      4.7444      4.6579      4.6289      4.6579      4.7444      4.8897      5.1019      5.4056      5.8469    
  6.4320      7.0728      7.6464      7.9956      7.9378      7.3029      6.0021      4.1044      1.8782     -.24230    
 -3.2866     -3.2866     -2.1849     -.24232      2.1092      4.4061      6.2850      7.5548      8.1958      8.3071    
  8.0439      7.5713      7.0408      6.5820      6.2678      6.0586      5.9154      5.8217      5.7745      5.7745    
  5.8217      5.9154      6.0586      6.2678      6.5820      7.0407      7.5713      8.0439      8.3071      8.1958    
  7.5548      6.2850      4.4062      2.1092     -.24230     -2.1850     -3.2866     -2.3298     -.60398      1.5748    
  3.8531      5.9256      7.5852      8.7342      9.3710      9.5699      9.4613      9.2078      8.9744      8.8605    
  8.8221      8.8119      8.8083      8.8062      8.8062      8.8083      8.8118      8.8221      8.8605      8.9744    
  9.2078      9.4613      9.5699      9.3709      8.7342      7.5852      5.9256      3.8531      1.5748     -.60398    
 -2.3298     -3.2866     -2.3298     -1.1026     0.71707      2.8566      5.0347      7.0104      8.6107      9.7418    
  10.396      10.648      10.644      10.562      10.560      10.649      10.762      10.856      10.915      10.935    
  10.915      10.856      10.762      10.649      10.560      10.562      10.644      10.648      10.396      9.7418    
  8.6106      7.0104      5.0347      2.8566     0.71706     -1.1026     -2.3298     -2.7636     -.60398     0.71707    
  2.4862      4.4967      6.5310      8.3865      9.9013      10.984      11.636      11.958      12.118      12.298    
  12.579      12.888      13.158      13.350      13.448      13.448      13.350      13.158      12.888      12.579    
  12.298      12.118      11.959      11.637      10.984      9.9013      8.3865      6.5310      4.4967      2.4862    
 0.71706     -.60399     -1.3112     -1.3112      1.5748      2.8566      4.4967      6.3455      8.2223      9.9396    
  11.345      12.367      13.045      13.514      13.953      14.494      15.081      15.616      16.032      16.292    
  16.380      16.292      16.032      15.616      15.081      14.494      13.953      13.514      13.045      12.367    
  11.345      9.9396      8.2223      6.3455      4.4967      2.8566      1.5748     0.76089     0.48201     0.76087    
  3.8531      5.0347      6.5310      8.2223      9.9409      11.512      12.812      13.819      14.622      15.381    
  16.243      17.182      18.073      18.812      19.333      19.601      19.601      19.334      18.813      18.073    
  17.182      16.243      15.381      14.622      13.819      12.812      11.512      9.9409      8.2223      6.5310    
  5.0346      3.8531      3.0496      2.6462      2.6461      3.0496      5.9256      7.0104      8.3865      9.9396    
  11.512      12.960      14.220      15.336      16.434      17.656      19.001      20.322      21.478      22.362    
  22.910      23.094      22.910      22.362      21.478      20.322      19.001      17.656      16.434      15.336    
  14.221      12.960      11.512      9.9395      8.3865      7.0104      5.9256      5.1761      4.7492      4.6121    
  4.7492      5.1761      7.5852      8.6107      9.9013      11.345      12.812      14.220      15.582      16.993    
  18.579      20.348      22.140      23.778      25.095      25.972      26.397      26.398      25.972      25.096    
  23.778      22.140      20.347      18.579      16.993      15.582      14.221      12.812      11.345      9.9013    
  8.6106      7.5852      6.8734      6.4536      6.2670      6.2670      6.4536      6.8734      8.7342      9.7418    
  10.984      12.367      13.819      15.336      16.993      18.900      21.065      23.325      25.467      27.220    
  28.415      29.071      29.275      29.071      28.415      27.220      25.467      23.325      21.065      18.900    
  16.993      15.336      13.819      12.367      10.984      9.7418      8.7342      8.0177      7.5836      7.3704    
  7.3093      7.3705      7.5836      8.0178      9.3710      10.396      11.636      13.045      14.622      16.434    
  18.579      21.065      23.737      26.355      28.542      30.054      30.915      31.280      31.280      30.915    
  30.055      28.542      26.355      23.737      21.065      18.579      16.434      14.622      13.045      11.636    
  10.396      9.3709      8.6111      8.1237      7.8636      7.7597      7.7598      7.8636      8.1236      8.6111    
  9.5699      10.648      11.958      13.514      15.381      17.656      20.348      23.325      26.355      28.987    
  30.861      31.947      32.441      32.573      32.440      31.947      30.861      28.988      26.355      23.325    
  20.347      17.656      15.381      13.514      11.959      10.648      9.5699      8.7404      8.1695      7.8314    
  7.6688      7.6228      7.6688      7.8314      8.1694      8.7404      9.4613      10.644      12.118      13.953    
  16.243      19.001      22.140      25.467      28.542      30.861      32.273      32.943      33.171      33.171    
  32.943      32.272      30.861      28.542      25.467      22.140      19.001      16.243      13.953      12.118    
  10.644      9.4613      8.5394      7.8694      7.4329      7.1890      7.0854      7.0854      7.1889      7.4329    
  7.8694      8.5395      9.2078      10.562      12.298      14.494      17.182      20.322      23.778      27.220    
  30.054      31.947      32.943      33.333      33.421      33.333      32.943      31.946      30.054      27.220    
  23.778      20.322      17.182      14.494      12.298      10.562      9.2078      8.1615      7.3813      6.8389    
  6.5007      6.3239      6.2702      6.3240      6.5007      6.8389      7.3814      8.1616      8.9744      10.560    
  12.579      15.081      18.073      21.478      25.095      28.415      30.915      32.441      33.171      33.421    
  33.421      33.170      32.440      30.914      28.415      25.096      21.478      18.073      15.081      12.579    
  10.560      8.9744      7.7596      6.8503      6.1971      5.7608      5.5023      5.3848      5.3849      5.5024    
  5.7608      6.1970      6.8503      7.7597      8.8605      10.649      12.888      15.616      18.812      22.362    
  25.972      29.071      31.280      32.573      33.171      33.333      33.170      32.572      31.279      29.071    
  25.972      22.362      18.813      15.616      12.888      10.649      8.8605      7.4631      6.4005      5.6234    
  5.0849      4.7411      4.5538      4.4948      4.5538      4.7411      5.0849      5.6234      6.4004      7.4631    
  8.8221      10.762      13.158      16.032      19.333      22.910      26.397      29.275      31.280      32.440    
  32.943      32.943      32.440      31.279      29.275      26.397      22.910      19.334      16.032      13.158    
  10.762      8.8221      7.2854      6.0940      5.1977      4.5528      4.1187      3.8567      3.7348      3.7348    
  3.8566      4.1187      4.5529      5.1977      6.0940      7.2854      8.8119      10.856      13.350      16.292    
  19.601      23.094      26.398      29.071      30.915      31.947      32.272      31.946      30.914      29.071    
  26.397      23.094      19.601      16.292      13.350      10.856      8.8119      7.1743      5.8882      4.9024    
  4.1728      3.6598      3.3266      3.1416      3.0825      3.1416      3.3266      3.6598      4.1728      4.9025    
  5.8883      7.1743      8.8083      10.915      13.448      16.380      19.601      22.910      25.972      28.415    
  30.055      30.861      30.861      30.054      28.415      25.972      22.910      19.601      16.380      13.448    
  10.915      8.8083      7.1013      5.7467      4.6948      3.9014      3.3266      2.9341      2.6926      2.5782    
  2.5783      2.6926      2.9341      3.3265      3.9014      4.6949      5.7467      7.1013      8.8062      10.935    
  13.448      16.292      19.334      22.362      25.096      27.220      28.542      28.988      28.542      27.220    
  25.096      22.362      19.334      16.292      13.448      10.935      8.8062      7.0573      5.6539      4.5526    
  3.7104      3.0876      2.6476      2.3584      2.1952      2.1426      2.1952      2.3584      2.6476      3.0876    
  3.7104      4.5526      5.6539      7.0573      8.8062      10.915      13.350      16.032      18.813      21.478    
  23.778      25.467      26.355      26.355      25.467      23.778      21.478      18.813      16.032      13.350    
  10.915      8.8062      7.0423      5.6071      4.4679      3.5867      2.9252      2.4465      2.1178      1.9131    
  1.8149      1.8149      1.9131      2.1178      2.4465      2.9252      3.5867      4.4679      5.6071      7.0423    
  8.8083      10.856      13.158      15.616      18.073      20.322      22.140      23.325      23.737      23.325    
  22.140      20.322      18.073      15.616      13.158      10.856      8.8083      7.0573      5.6071      4.4396    
  3.5255      2.8304      2.3186      1.9565      1.7165      1.5794      1.5348      1.5794      1.7165      1.9565    
  2.3186      2.8304      3.5255      4.4396      5.6072      7.0573      8.8118      10.762      12.888      15.081    
  17.182      19.001      20.347      21.065      21.065      20.347      19.001      17.182      15.081      12.888    
  10.762      8.8119      7.1013      5.6539      4.4679      3.5255      2.7992      2.2565      1.8642      1.5933    
  1.4228      1.3402      1.3402      1.4228      1.5933      1.8642      2.2565      2.7992      3.5255      4.4679    
  5.6539      7.1013      8.8221      10.649      12.579      14.494      16.243      17.656      18.579      18.900    
  18.579      17.656      16.243      14.494      12.579      10.649      8.8221      7.1743      5.7467      4.5526    
  3.5867      2.8304      2.2565      1.8342      1.5343      1.3340      1.2187      1.1810      1.2187      1.3340    
  1.5343      1.8342      2.2565      2.8304      3.5867      4.5526      5.7467      7.1743      8.8605      10.560    
  12.298      13.953      15.381      16.434      16.993      16.993      16.434      15.381      13.953      12.298    
  10.560      8.8605      7.2854      5.8882      4.6948      3.7104      2.9252      2.3186      1.8642      1.5343    
  1.3054      1.1606      1.0902      1.0902      1.1606      1.3054      1.5343      1.8642      2.3186      2.9252    
  3.7104      4.6948      5.8883      7.2854      8.9744      10.562      12.118      13.514      14.622      15.336    
  15.582      15.336      14.622      13.514      12.118      10.562      8.9744      7.4631      6.0940      4.9024    
  3.9014      3.0876      2.4465      1.9565      1.5933      1.3340      1.1606      1.0608      1.0282      1.0608    
  1.1606      1.3340      1.5933      1.9565      2.4465      3.0876      3.9014      4.9024      6.0940      7.4631    
  9.2078      10.644      11.959      13.045      13.819      14.221      14.221      13.819      13.045      11.959    
  10.644      9.2078      7.7596      6.4005      5.1977      4.1728      3.3266      2.6476      2.1178      1.7165    
  1.4228      1.2187      1.0902      1.0282      1.0282      1.0902      1.2187      1.4228      1.7165      2.1178    
  2.6476      3.3266      4.1728      5.1976      6.4004      7.7596      9.4613      10.648      11.637      12.367    
  12.812      12.960      12.812      12.367      11.636      10.648      9.4613      8.1615      6.8503      5.6234    
  4.5528      3.6598      2.9341      2.3584      1.9131      1.5794      1.3402      1.1810      1.0902      1.0608    
  1.0902      1.1809      1.3402      1.5794      1.9131      2.3584      2.9341      3.6598      4.5528      5.6234    
  6.8502      8.1615      9.5699      10.396      10.984      11.345      11.512      11.512      11.345      10.984    
  10.396      9.5699      8.5394      7.3813      6.1971      5.0849      4.1187      3.3266      2.6926      2.1952    
  1.8149      1.5348      1.3402      1.2187      1.1606      1.1606      1.2187      1.3402      1.5348      1.8149    
  2.1952      2.6926      3.3266      4.1187      5.0849      6.1971      7.3813      8.5394      9.3709      9.7418    
  9.9013      9.9396      9.9409      9.9395      9.9013      9.7418      9.3709      8.7404      7.8694      6.8389    
  5.7608      4.7411      3.8567      3.1416      2.5782      2.1426      1.8149      1.5794      1.4228      1.3340    
  1.3054      1.3340      1.4228      1.5794      1.8149      2.1426      2.5783      3.1416      3.8566      4.7411    
  5.7608      6.8390      7.8694      8.7404      8.7342      8.6106      8.3865      8.2223      8.2223      8.3865    
  8.6106      8.7342      8.6111      8.1695      7.4329      6.5007      5.5023      4.5538      3.7348      3.0825    
  2.5783      2.1952      1.9131      1.7165      1.5933      1.5343      1.5343      1.5933      1.7165      1.9131    
  2.1952      2.5783      3.0825      3.7348      4.5538      5.5024      6.5007      7.4329      8.1694      8.6111    
  7.5852      7.0104      6.5310      6.3455      6.5310      7.0104      7.5852      8.0177      8.1237      7.8314    
  7.1890      6.3239      5.3848      4.4948      3.7348      3.1416      2.6926      2.3584      2.1178      1.9565    
  1.8642      1.8342      1.8642      1.9565      2.1178      2.3584      2.6926      3.1416      3.7348      4.4948    
  5.3848      6.3239      7.1889      7.8314      8.1236      8.0178      5.9256      5.0347      4.4967      4.4967    
  5.0346      5.9256      6.8734      7.5836      7.8636      7.6688      7.0854      6.2702      5.3849      4.5538    
  3.8566      3.3266      2.9341      2.6476      2.4465      2.3186      2.2565      2.2565      2.3186      2.4465    
  2.6476      2.9341      3.3266      3.8566      4.5538      5.3848      6.2702      7.0854      7.6688      7.8636    
  7.5836      6.8734      3.8531      2.8566      2.4862      2.8566      3.8531      5.1761      6.4536      7.3704    
  7.7597      7.6228      7.0854      6.3240      5.5024      4.7411      4.1187      3.6598      3.3265      3.0876    
  2.9252      2.8304      2.7992      2.8304      2.9252      3.0876      3.3266      3.6598      4.1187      4.7411    
  5.5024      6.3239      7.0854      7.6228      7.7598      7.3704      6.4536      5.1761      1.5748     0.71706    