unknown system                          
   1.00000000000000     
     0.000000    3.029200    3.029200
     3.029200    0.000000    3.029200
     3.029200    3.029200    0.000000
   In   As
     1     1
Direct
  0.000000  0.000000  0.000000
  0.250000  0.250000  0.250000
 
   36   36   36
 -4.1044     -3.5785     -2.1053     0.31835E-01  2.4511      4.7714      6.6964      8.0588      8.8213      9.0505    
  8.8804      8.4793      8.0218      7.6587      7.4221      7.2655      7.1608      7.0982      7.0771      7.0982    
  7.1608      7.2655      7.4221      7.6587      8.0218      8.4793      8.8804      9.0505      8.8213      8.0588    
  6.6964      4.7714      2.4511     0.31851E-01 -2.1053     -3.5785     -3.5785     -2.6542     -.96474      1.2131    
  3.5521      5.7446      7.5543      8.8434      9.5781      9.8186      9.6988      9.3967      9.0968      8.9154    
  8.8192      8.7653      8.7328      8.7164      8.7164      8.7328      8.7653      8.8192      8.9154      9.0969    
  9.3967      9.6988      9.8185      9.5781      8.8434      7.5542      5.7446      3.5521      1.2131     -.96473    
 -2.6542     -3.5785     -2.1053     -.96474     0.75733      2.8313      4.9991      7.0142      8.6761      9.8594    
  10.533      10.767      10.711      10.558      10.480      10.496      10.548      10.598      10.630      10.641    
  10.630      10.598      10.548      10.496      10.480      10.558      10.711      10.767      10.533      9.8594    
  8.6761      7.0142      4.9991      2.8313     0.75734     -.96474     -2.1053     -2.5046     0.31835E-01  1.2131    
  2.8313      4.7176      6.6706      8.4806      9.9653      11.012      11.611      11.860      11.933      12.022    
  12.210      12.433      12.634      12.779      12.854      12.854      12.779      12.634      12.433      12.210    
  12.022      11.933      11.860      11.611      11.012      9.9653      8.4806      6.6706      4.7176      2.8313    
  1.2131     0.31829E-01 -.59072     -.59072      2.4511      3.5521      4.9991      6.6706      8.3970      9.9871    
  11.278      12.188      12.750      13.100      13.421      13.841      14.306      14.735      15.072      15.284    
  15.355      15.284      15.072      14.735      14.305      13.841      13.421      13.100      12.750      12.188    
  11.278      9.9870      8.3970      6.6706      4.9991      3.5521      2.4511      1.7679      1.5369      1.7679    
  4.7714      5.7446      7.0142      8.4806      9.9871      11.361      12.478      13.313      13.950      14.548    
  15.247      16.014      16.748      17.361      17.796      18.019      18.019      17.796      17.361      16.748    
  16.014      15.247      14.548      13.950      13.313      12.478      11.361      9.9870      8.4806      7.0142    
  5.7446      4.7714      4.1303      3.8165      3.8165      4.1303      6.6964      7.5543      8.6761      9.9653    
  11.278      12.478      13.505      14.398      15.280      16.285      17.394      18.489      19.453      20.197    
  20.661      20.819      20.661      20.197      19.453      18.489      17.394      16.285      15.280      14.398    
  13.505      12.478      11.278      9.9653      8.6761      7.5543      6.6964      6.1276      5.8174      5.7208    
  5.8174      6.1276      8.0588      8.8434      9.8594      11.012      12.188      13.313      14.398      15.534    
  16.837      18.294      19.776      21.141      22.264      23.049      23.444      23.444      23.049      22.264    
  21.141      19.775      18.293      16.837      15.534      14.398      13.313      12.188      11.012      9.8594    
  8.8434      8.0588      7.5383      7.2499      7.1298      7.1298      7.2499      7.5383      8.8213      9.5781    
  10.533      11.611      12.750      13.950      15.280      16.837      18.606      20.460      22.239      23.778    
  24.916      25.588      25.807      25.588      24.916      23.778      22.239      20.460      18.606      16.837    
  15.280      13.950      12.750      11.611      10.533      9.5781      8.8213      8.3044      8.0106      7.8787    
  7.8439      7.8787      8.0106      8.3044      9.0505      9.8186      10.767      11.860      13.100      14.548    
  16.285      18.294      20.460      22.620      24.572      26.083      27.055      27.517      27.517      27.055    
  26.083      24.572      22.620      20.460      18.293      16.285      14.548      13.100      11.860      10.767    
  9.8185      9.0505      8.4977      8.1591      7.9908      7.9293      7.9293      7.9908      8.1591      8.4977    
  8.8804      9.6988      10.711      11.933      13.421      15.247      17.394      19.776      22.239      24.572    
  26.477      27.789      28.520      28.750      28.520      27.789      26.478      24.572      22.239      19.775    
  17.394      15.247      13.421      11.933      10.711      9.6988      8.8804      8.2645      7.8524      7.6174    
  7.5096      7.4804      7.5096      7.6174      7.8524      8.2645      8.4793      9.3967      10.558      12.022    
  13.841      16.014      18.489      21.141      23.778      26.083      27.789      28.846      29.335      29.335    
  28.846      27.789      26.083      23.778      21.141      18.489      16.014      13.841      12.022      10.558    
  9.3967      8.4794      7.7774      7.2767      6.9567      6.7811      6.7076      6.7076      6.7810      6.9567    
  7.2768      7.7774      8.0218      9.0968      10.480      12.210      14.306      16.748      19.453      22.264    
  24.916      27.055      28.520      29.335      29.592      29.335      28.520      27.055      24.916      22.264    
  19.453      16.748      14.305      12.210      10.480      9.0969      8.0218      7.2033      6.6028      6.1908    
  5.9361      5.8032      5.7628      5.8032      5.9361      6.1908      6.6028      7.2033      7.6587      8.9154    
  10.496      12.433      14.735      17.361      20.197      23.049      25.588      27.517      28.750      29.335    
  29.335      28.750      27.517      25.588      23.049      20.197      17.361      14.735      12.433      10.496    
  8.9155      7.6587      6.6888      5.9690      5.4588      5.1207      4.9205      4.8291      4.8291      4.9205    
  5.1207      5.4587      5.9691      6.6889      7.4221      8.8192      10.548      12.634      15.072      17.796    
  20.661      23.444      25.807      27.517      28.520      28.846      28.520      27.517      25.807      23.444    
  20.661      17.796      15.072      12.634      10.548      8.8192      7.4221      6.3200      5.4769      4.8587    
  4.4307      4.1579      4.0087      3.9615      4.0087      4.1579      4.4307      4.8587      5.4769      6.3200    
  7.2655      8.7653      10.598      12.779      15.284      18.019      20.819      23.444      25.588      27.055    
  27.789      27.789      27.055      25.588      23.444      20.819      18.019      15.284      12.779      10.598    
  8.7652      7.2655      6.0653      5.1288      4.4221      3.9123      3.5670      3.3564      3.2574      3.2574    
  3.3564      3.5670      3.9123      4.4221      5.1288      6.0653      7.1608      8.7328      10.630      12.854    
  15.355      18.019      20.661      23.049      24.916      26.083      26.478      26.083      24.916      23.049    
  20.661      18.019      15.355      12.854      10.630      8.7328      7.1608      5.8885      4.8824      4.1088    
  3.5354      3.1304      2.8650      2.7157      2.6677      2.7157      2.8650      3.1304      3.5354      4.1088    
  4.8824      5.8885      7.0982      8.7164      10.641      12.854      15.284      17.796      20.197      22.264    
  23.778      24.572      24.572      23.778      22.264      20.197      17.796      15.284      12.854      10.641    
  8.7164      7.0982      5.7731      4.7137      3.8884      3.2652      2.8126      2.5013      2.3073      2.2144    
  2.2144      2.3073      2.5013      2.8126      3.2652      3.8884      4.7137      5.7731      7.0771      8.7164    
  10.630      12.779      15.072      17.361      19.453      21.141      22.239      22.620      22.239      21.141    
  19.453      17.361      15.072      12.779      10.630      8.7164      7.0771      5.7152      4.6134      3.7454    
  3.0812      2.5894      2.2400      2.0078      1.8751      1.8319      1.8751      2.0078      2.2400      2.5894    
  3.0812      3.7454      4.6134      5.7152      7.0982      8.7328      10.598      12.634      14.735      16.748    
  18.489      19.775      20.460      20.460      19.775      18.489      16.748      14.735      12.634      10.598    
  8.7328      7.0982      5.7152      4.5799      3.6745      2.9733      2.4467      2.0640      1.7989      1.6316    
  1.5504      1.5504      1.6316      1.7989      2.0640      2.4466      2.9734      3.6745      4.5799      5.7152    
  7.1608      8.7653      10.548      12.433      14.305      16.014      17.394      18.293      18.606      18.293    
  17.394      16.014      14.305      12.433      10.548      8.7652      7.1608      5.7731      4.6134      3.6745    
  2.9377      2.3768      1.9626      1.6673      1.4694      1.3551      1.3176      1.3551      1.4694      1.6673    
  1.9626      2.3768      2.9377      3.6745      4.6134      5.7731      7.2655      8.8192      10.496      12.210    
  13.841      15.247      16.285      16.837      16.837      16.285      15.247      13.841      12.210      10.496    
  8.8192      7.2655      5.8885      4.7137      3.7454      2.9733      2.3768      1.9294      1.6039      1.3771    
  1.2331      1.1629      1.1629      1.2331      1.3771      1.6039      1.9294      2.3768      2.9733      3.7454    
  4.7137      5.8885      7.4221      8.9154      10.480      12.022      13.421      14.548      15.280      15.534    
  15.280      14.548      13.421      12.022      10.480      8.9155      7.4221      6.0653      4.8824      3.8884    
  3.0812      2.4467      1.9626      1.6039      1.3473      1.1748      1.0751      1.0424      1.0751      1.1748    
  1.3473      1.6039      1.9626      2.4467      3.0812      3.8884      4.8824      6.0653      7.6587      9.0969    
  10.558      11.933      13.100      13.950      14.398      14.398      13.950      13.100      11.933      10.558    
  9.0969      7.6587      6.3200      5.1288      4.1088      3.2652      2.5894      2.0640      1.6673      1.3771    
  1.1748      1.0467     0.98445     0.98444      1.0467      1.1748      1.3771      1.6673      2.0640      2.5894    
  3.2652      4.1088      5.1288      6.3200      8.0218      9.3967      10.711      11.860      12.750      13.313    
  13.505      13.313      12.750      11.860      10.711      9.3967      8.0218      6.6888      5.4769      4.4221    
  3.5354      2.8126      2.2400      1.7989      1.4694      1.2331      1.0751     0.98445     0.95493     0.98445    
  1.0751      1.2331      1.4694      1.7989      2.2400      2.8126      3.5354      4.4221      5.4769      6.6889    
  8.4793      9.6988      10.767      11.611      12.188      12.478      12.478      12.188      11.611      10.767    
  9.6988      8.4794      7.2033      5.9690      4.8587      3.9123      3.1304      2.5013      2.0078      1.6316    
  1.3551      1.1629      1.0424     0.98444     0.98445      1.0424      1.1629      1.3551      1.6316      2.0078    
  2.5013      3.1304      3.9123      4.8587      5.9691      7.2033      8.8804      9.8185      10.533      11.012    
  11.278      11.361      11.278      11.012      10.533      9.8185      8.8804      7.7774      6.6028      5.4588    
  4.4307      3.5670      2.8650      2.3073      1.8751      1.5504      1.3176      1.1629      1.0751      1.0467    
  1.0751      1.1629      1.3176      1.5504      1.8751      2.3073      2.8650      3.5670      4.4307      5.4588    
  6.6027      7.7773      9.0505      9.5781      9.8594      9.9653      9.9870      9.9870      9.9653      9.8594    
  9.5781      9.0505      8.2645      7.2767      6.1908      5.1207      4.1579      3.3564      2.7157      2.2144    
  1.8319      1.5504      1.3551      1.2331      1.1748      1.1748      1.2331      1.3551      1.5504      1.8319    
  2.2144      2.7157      3.3564      4.1579      5.1207      6.1909      7.2768      8.2646      8.8213      8.8434    
  8.6761      8.4806      8.3970      8.4806      8.6761      8.8434      8.8213      8.4977      7.8524      6.9567    
  5.9361      4.9205      4.0087      3.2574      2.6677      2.2144      1.8751      1.6316      1.4694      1.3771    
  1.3473      1.3771      1.4694      1.6316      1.8751      2.2144      2.6677      3.2574      4.0087      4.9205    
  5.9361      6.9567      7.8524      8.4977      8.0588      7.5542      7.0142      6.6706      6.6706      7.0142    
  7.5543      8.0588      8.3044      8.1591      7.6174      6.7811      5.8032      4.8291      3.9615      3.2574    
  2.7157      2.3073      2.0078      1.7989      1.6673      1.6039      1.6039      1.6673      1.7989      2.0078    
  2.3073      2.7157      3.2574      3.9615      4.8291      5.8032      6.7811      7.6174      8.1591      8.3044    
  6.6964      5.7446      4.9991      4.7176      4.9991      5.7446      6.6964      7.5383      8.0106      7.9908    
  7.5096      6.7076      5.7628      4.8291      4.0087      3.3564      2.8650      2.5013      2.2400      2.0640    
  1.9626      1.9294      1.9626      2.0640      2.2400      2.5013      2.8650      3.3564      4.0087      4.8291    
  5.7628      6.7076      7.5096      7.9908      8.0106      7.5383      4.7714      3.5521      2.8313      2.8313    
  3.5521      4.7714      6.1276      7.2499      7.8787      7.9293      7.4804      6.7076      5.8032      4.9205    
  4.1579      3.5670      3.1304      2.8126      2.5894      2.4466      2.3768      2.3768      2.4467      2.5894    
  2.8126      3.1304      3.5670      4.1579      4.9205      5.8032      6.7076      7.4804      7.9293      7.8787    
  7.2499      6.1276      2.4511      1.2131     0.75734      1.2131      2.4511      4.1303      5.8174      7.1298    
  7.8439      7.9293      7.5096      6.7810      5.9361      5.1207      4.4307      3.9123      3.5354      3.2652    
  3.0812      2.9734      2.9377      2.9733      3.0812      3.2652      3.5354      3.9123      4.4307      5.1207    
  5.9361      6.7811      7.5096      7.9293      7.8439      7.1298      5.8174      4.1303     0.31851E-01 -.96473    
 -.96474     0.31829E-01  1.7679      3.8165      5.7208      7.1298      7.8787      7.9908      7.6174      6.9567    
  6.1908      5.4587      4.8587      4.4221      4.1088      3.8884      3.7454      3.6745      3.6745      3.7454    
  3.8884      4.1088      4.4221      4.8587      5.4588      6.1909      6.9567      7.6174      7.9908      7.8787    
  7.1298      5.7208      3.8165      1.7679     -2.1053     -2.6542     -2.1053     -.59072      1.5369      3.8165    
  5.8174      7.2499      8.0106      8.1591      7.8524      7.2768      6.6028      5.9691      5.4769      5.1288    
  4.8824      4.7137      4.6134      4.5799      4.6134      4.7137      4.8824      5.1288      5.4769      5.9691    
  6.6027      7.2768      7.8524      8.1591      8.0106      7.2499      5.8174      3.8165      1.5369     -.59072    
 -3.5785     -3.5785     -2.5046     -.59072      1.7679      4.1303      6.1276      7.5383      8.3044      8.4977    
  8.2645      7.7774      7.2033      6.6889      6.3200      6.0653      5.8885      5.7731      5.7152      5.7152    
  5.7731      5.8885      6.0653      6.3200      6.6889      7.2033      7.7773      8.2646      8.4977      8.3044    
  7.5383      6.1276      4.1303      1.7679     -.59072     -2.5047     -3.5785     -2.6542     -.96474      1.2131    
  3.5521      5.7446      7.5543      8.8434      9.5781      9.8186      9.6988      9.3967      9.0968      8.9154    
  8.8192      8.7653      8.7328      8.7164      8.7164      8.7328      8.7653      8.8192      8.9154      9.0969    
  9.3967      9.6988      9.8185      9.5781      8.8434      7.5542      5.7446      3.5521      1.2131     -.96473    
 -2.6542     -3.5785     -2.6542     -1.4609     0.34210      2.5159      4.7913      6.9108      8.6651      9.9224    
  10.650      10.916      10.877      10.729      10.651      10.670      10.725      10.778      10.812      10.824    
  10.812      10.778      10.725      10.670      10.651      10.729      10.877      10.916      10.650      9.9224    
  8.6650      6.9108      4.7913      2.5159     0.34211     -1.4609     -2.6542     -3.0718     -.96474     0.34210    
  2.1330      4.2212      6.3852      8.3951      10.052      11.233      11.925      12.230      12.330      12.430    
  12.630      12.868      13.082      13.237      13.316      13.316      13.237      13.082      12.868      12.629    
  12.430      12.330      12.230      11.925      11.233      10.052      8.3951      6.3852      4.2212      2.1330    
 0.34210     -.96473     -1.6533     -1.6533      1.2131      2.5159      4.2212      6.1835      8.2050      10.067    
  11.586      12.668      13.347      13.767      14.127      14.579      15.083      15.550      15.915      16.143    
  16.221      16.144      15.915      15.550      15.083      14.579      14.127      13.767      13.347      12.668    
  11.586      10.067      8.2050      6.1835      4.2212      2.5159      1.2131     0.40204     0.12735     0.40202    
  3.5521      4.7913      6.3852      8.2050      10.060      11.747      13.118      14.141      14.908      15.592    
  16.363      17.211      18.022      18.698      19.174      19.418      19.418      19.174      18.698      18.022    
  17.211      16.363      15.592      14.908      14.141      13.118      11.747      10.060      8.2050      6.3852    
  4.7913      3.5521      2.7243      2.3146      2.3146      2.7243      5.7446      6.9108      8.3951      10.067    
  11.747      13.268      14.553      15.642      16.674      17.807      19.057      20.290      21.370      22.197    
  22.709      22.880      22.709      22.197      21.371      20.290      19.057      17.807      16.674      15.642    
  14.553      13.268      11.747      10.067      8.3951      6.9108      5.7446      4.9450      4.4937      4.3498    
  4.4937      4.9450      7.5543      8.6651      10.052      11.586      13.118      14.553      15.895      17.248    
  18.751      20.425      22.126      23.682      24.931      25.759      26.159      26.159      25.760      24.932    
  23.682      22.126      20.425      18.750      17.248      15.895      14.553      13.118      11.586      10.052    
  8.6650      7.5542      6.7786      6.3191      6.1143      6.1143      6.3191      6.7787      8.8434      9.9224    
  11.233      12.668      14.141      15.642      17.248      19.079      21.154      23.324      25.381      27.060    
  28.198      28.817      29.008      28.817      28.198      27.061      25.381      23.324      21.154      19.078    
  17.248      15.642      14.141      12.668      11.233      9.9224      8.8434      8.0652      7.5858      7.3461    
  7.2762      7.3461      7.5859      8.0652      9.5781      10.650      11.925      13.347      14.908      16.674    
  18.751      21.154      23.740      26.275      28.387      29.838      30.654      30.996      30.996      30.654    
  29.838      28.387      26.275      23.740      21.154      18.750      16.674      14.908      13.347      11.925    
  10.650      9.5781      8.7708      8.2434      7.9556      7.8378      7.8379      7.9557      8.2434      8.7707    
  9.8186      10.916      12.230      13.767      15.592      17.807      20.425      23.324      26.275      28.835    
  30.646      31.685      32.151      32.273      32.151      31.685      30.646      28.835      26.275      23.324    
  20.425      17.807      15.592      13.767      12.230      10.916      9.8185      8.9618      8.3635      8.0033    
  7.8268      7.7761      7.8268      8.0033      8.3635      8.9618      9.6988      10.877      12.330      14.127    
  16.363      19.057      22.126      25.381      28.387      30.646      32.011      32.652      32.866      32.866    
  32.652      32.011      30.646      28.387      25.381      22.126      19.057      16.363      14.127      12.330    
  10.877      9.6988      8.7701      8.0878      7.6386      7.3850      7.2763      7.2763      7.3849      7.6386    
  8.0878      8.7702      9.3967      10.729      12.430      14.579      17.211      20.290      23.682      27.060    
  29.838      31.685      32.652      33.027      33.111      33.027      32.652      31.685      29.838      27.061    
  23.682      20.290      17.211      14.579      12.430      10.729      9.3967      8.3606      7.5822      7.0373    
  6.6955      6.5162      6.4616      6.5162      6.6955      7.0373      7.5822      8.3606      9.0968      10.651    
  12.630      15.083      18.022      21.370      24.931      28.198      30.654      32.151      32.866      33.111    
  33.111      32.865      32.150      30.654      28.198      24.932      21.371      18.022      15.083      12.630    
  10.651      9.0969      7.9035      7.0069      6.3603      5.9269      5.6696      5.5525      5.5526      5.6697    
  5.9269      6.3602      7.0069      7.9036      8.9154      10.670      12.868      15.550      18.698      22.197    
  25.759      28.817      30.996      32.273      32.866      33.027      32.865      32.273      30.996      28.817    
  25.759      22.197      18.698      15.550      12.868      10.670      8.9155      7.5452      6.5022      5.7384    
  5.2083      4.8695      4.6849      4.6268      4.6849      4.8695      5.2083      5.7384      6.5022      7.5452    
  8.8192      10.725      13.082      15.915      19.174      22.709      26.159      29.008      30.996      32.151    
  32.652      32.652      32.150      30.996      29.008      26.159      22.709      19.174      15.915      13.082    
  10.725      8.8192      7.3113      6.1427      5.2634      4.6308      4.2049      3.9480      3.8286      3.8286    
  3.9480      4.2049      4.6309      5.2635      6.1426      7.3112      8.7653      10.778      13.237      16.143    
  19.418      22.880      26.159      28.817      30.654      31.685      32.011      31.685      30.654      28.817    
  26.159      22.880      19.418      16.144      13.237      10.778      8.7653      7.1556      5.8929      4.9258    
  4.2104      3.7077      3.3815      3.2005      3.1428      3.2005      3.3815      3.7077      4.2104      4.9258    
  5.8929      7.1556      8.7328      10.812      13.316      16.221      19.418      22.709      25.760      28.198    
  29.838      30.646      30.646      29.838      28.198      25.759      22.709      19.418      16.221      13.316    
  10.812      8.7328      7.0513      5.7189      4.6858      3.9072      3.3438      2.9595      2.7233      2.6115    
  2.6116      2.7233      2.9595      3.3438      3.9072      4.6858      5.7189      7.0513      8.7164      10.824    
  13.316      16.144      19.174      22.197      24.932      27.061      28.387      28.835      28.387      27.061    
  24.932      22.197      19.174      16.144      13.316      10.824      8.7164      6.9888      5.6052      4.5212    
  3.6935      3.0823      2.6510      2.3679      2.2083      2.1569      2.2083      2.3679      2.6510      3.0823    
  3.6935      4.5212      5.6052      6.9888      8.7164      10.812      13.237      15.915      18.698      21.371    
  23.682      25.381      26.275      26.275      25.381      23.682      21.371      18.698      15.915      13.237    
  10.812      8.7164      6.9676      5.5480      4.4234      3.5552      2.9045      2.4345      2.1123      1.9117    
  1.8157      1.8157      1.9117      2.1123      2.4345      2.9045      3.5551      4.4234      5.5480      6.9676    
  8.7328      10.778      13.082      15.550      18.022      20.290      22.126      23.324      23.740      23.324    
  22.126      20.290      18.022      15.550      13.082      10.778      8.7328      6.9888      5.5480      4.3908    
  3.4867      2.8007      2.2967      1.9407      1.7051      1.5707      1.5270      1.5707      1.7051      1.9407    
  2.2967      2.8007      3.4867      4.3908      5.5480      6.9888      8.7653      10.725      12.868      15.083    
  17.211      19.057      20.425      21.154      21.154      20.425      19.057      17.211      15.083      12.868    
  10.725      8.7653      7.0513      5.6052      4.4234      3.4867      2.7666      2.2297      1.8424      1.5754    
  1.4077      1.3265      1.3265      1.4077      1.5754      1.8424      2.2297      2.7666      3.4867      4.4234    
  5.6052      7.0513      8.8192      10.670      12.629      14.579      16.363      17.807      18.750      19.078    
  18.750      17.807      16.363      14.579      12.630      10.670      8.8192      7.1556      5.7189      4.5212    
  3.5552      2.8007      2.2297      1.8104      1.5132      1.3151      1.2011      1.1639      1.2011      1.3151    
  1.5132      1.8104      2.2297      2.8007      3.5551      4.5212      5.7190      7.1556      8.9154      10.651    
  12.430      14.127      15.592      16.674      17.248      17.248      16.674      15.592      14.127      12.430    
  10.651      8.9155      7.3113      5.8929      4.6858      3.6935      2.9045      2.2967      1.8424      1.5132    
  1.2851      1.1411      1.0712      1.0712      1.1411      1.2851      1.5132      1.8424      2.2967      2.9045    
  3.6935      4.6858      5.8929      7.3113      9.0969      10.729      12.330      13.767      14.908      15.642    
  15.895      15.642      14.908      13.767      12.330      10.729      9.0969      7.5452      6.1427      4.9258    
  3.9072      3.0823      2.4345      1.9407      1.5754      1.3151      1.1411      1.0411      1.0085      1.0411    
  1.1411      1.3151      1.5754      1.9407      2.4345      3.0823      3.9072      4.9258      6.1426      7.5452    
  9.3967      10.877      12.230      13.347      14.141      14.553      14.553      14.141      13.347      12.230    
  10.877      9.3967      7.9035      6.5022      5.2634      4.2104      3.3438      2.6510      2.1123      1.7051    
  1.4077      1.2011      1.0712      1.0085      1.0085      1.0712      1.2011      1.4077      1.7051      2.1123    
  2.6510      3.3438      4.2104      5.2634      6.5022      7.9035      9.6988      10.916      11.925      12.668    
  13.118      13.268      13.118      12.668      11.925      10.916      9.6988      8.3606      7.0069      5.7384    
  4.6308      3.7077      2.9595      2.3679      1.9117      1.5707      1.3265      1.1639      1.0712      1.0411    
  1.0712      1.1639      1.3265      1.5707      1.9117      2.3679      2.9595      3.7077      4.6308      5.7384    
  7.0069      8.3606      9.8185      10.650      11.233      11.586      11.747      11.747      11.586      11.233    
  10.650      9.8185      8.7701      7.5822      6.3603      5.2083      4.2049      3.3815      2.7233      2.2083    
  1.8157      1.5270      1.3265      1.2011      1.1411      1.1411      1.2011      1.3265      1.5270      1.8157    
  2.2083      2.7233      3.3816      4.2049      5.2083      6.3603      7.5822      8.7701      9.5781      9.9224    
  10.052      10.067      10.060      10.067      10.052      9.9224      9.5781      8.9618      8.0878      7.0373    
  5.9269      4.8695      3.9480      3.2005      2.6115      2.1569      1.8157      1.5707      1.4077      1.3151    
  1.2851      1.3151      1.4077      1.5707      1.8157      2.1569      2.6116      3.2005      3.9480      4.8695    
  5.9269      7.0373      8.0878      8.9618      8.8434      8.6650      8.3951      8.2050      8.2050      8.3951    
  8.6650      8.8434      8.7708      8.3635      7.6386      6.6955      5.6696      4.6849      3.8286      3.1428    
  2.6116      2.2083      1.9117      1.7051      1.5754      1.5132      1.5132      1.5754      1.7051      1.9117    
  2.2083      2.6116      3.1428      3.8286      4.6849      5.6696      6.6956      7.6386      8.3635      8.7708    
  7.5542      6.9108      6.3852      6.1835      6.3852      6.9108      7.5542      8.0652      8.2434      8.0033    
  7.3850      6.5162      5.5525      4.6268      3.8286      3.2005      2.7233      2.3679      2.1123      1.9407    
  1.8424      1.8104      1.8424      1.9407      2.1123      2.3679      2.7233      3.2005      3.8286      4.6268    
  5.5525      6.5162      7.3849      8.0033      8.2434      8.0652      5.7446      4.7913      4.2212      4.2212    
  4.7913      5.7446      6.7786      7.5858      7.9556      7.8268      7.2763      6.4616      5.5526      4.6849    
  3.9480      3.3815      2.9595      2.6510      2.4345      2.2967      2.2297      2.2297      2.2967      2.4345    
  2.6510      2.9595      3.3816      3.9480      4.6849      5.5525      6.4616      7.2763      7.8268      7.9556    
  7.5859      6.7787      3.5521      2.5159      2.1330      2.5159      3.5521      4.9450      6.3191      7.3461    
  7.8378      7.7761      7.2763      6.5162      5.6697      4.8695      4.2049      3.7077      3.3438      3.0823    
  2.9045      2.8007      2.7666      2.8007      2.9045      3.0823      3.3438      3.7077      4.2049      4.8695    
  5.6696      6.5162      7.2763      7.7762      7.8379      7.3461      6.3191      4.9450      1.2131     0.34211    