unknown system                          
   1.00000000000000     
     0.000000    3.029200    3.029200
     3.029200    0.000000    3.029200
     3.029200    3.029200    0.000000
   In   As
     1     1
Direct
  0.000000  0.000000  0.000000
  0.250000  0.250000  0.250000
 
   36   36   36
 -.41043850023E+01 -.35784662314E+01 -.21053113789E+01 0.31835400634E-01 0.24510778756E+01
 0.47713772626E+01 0.66964198898E+01 0.80587805919E+01 0.88213325016E+01 0.90504998310E+01
 0.88803584750E+01 0.84793163796E+01 0.80217718449E+01 0.76586624603E+01 0.74221464502E+01
 0.72655386676E+01 0.71608452505E+01 0.70982215838E+01 0.70770817116E+01 0.70982285489E+01
 0.71608490804E+01 0.72655338753E+01 0.74221409318E+01 0.76586683989E+01 0.80217906321E+01
 0.84793352801E+01 0.88803614234E+01 0.90504812281E+01 0.88213029506E+01 0.80587603485E+01
 0.66964238122E+01 0.47714027549E+01 0.24511072418E+01 0.31851351820E-01 -.21053117948E+01
 -.35784721983E+01 -.35784662314E+01 -.26541777999E+01 -.96474181864E+00 0.12130608281E+01
 0.35521196330E+01 0.57446077401E+01 0.75542554707E+01 0.88433993183E+01 0.95781123646E+01
 0.98185564136E+01 0.96987562114E+01 0.93966926002E+01 0.90968401873E+01 0.89154160770E+01
 0.88192124199E+01 0.87652712329E+01 0.87328073168E+01 0.87163663950E+01 0.87163591125E+01
 0.87327882803E+01 0.87652509851E+01 0.88192092775E+01 0.89154451048E+01 0.90968963038E+01
 0.93967469891E+01 0.96987765632E+01 0.98185346117E+01 0.95780706958E+01 0.88433680820E+01
 0.75542468753E+01 0.57446131845E+01 0.35521277149E+01 0.12130706069E+01 -.96472652456E+00
 -.26541606866E+01 -.35784584479E+01 -.21053113789E+01 -.96474181864E+00 0.75732807889E+00
 0.28313278906E+01 0.49991380883E+01 0.70141852119E+01 0.86761069133E+01 0.98593718161E+01
 0.10533344977E+02 0.10766976602E+02 0.10711055466E+02 0.10557993199E+02 0.10480250459E+02
 0.10496260228E+02 0.10547826306E+02 0.10597867019E+02 0.10630203317E+02 0.10641017714E+02
 0.10630200781E+02 0.10597846607E+02 0.10547781849E+02 0.10496214005E+02 0.10480239637E+02
 0.10558033347E+02 0.10711122510E+02 0.10767029447E+02 0.10533361679E+02 0.98593595574E+01
 0.86760845827E+01 0.70141670546E+01 0.49991309348E+01 0.28313315436E+01 0.75733520776E+00
 -.96473902963E+00 -.21053126503E+01 -.25046393697E+01 0.31835400634E-01 0.12130608281E+01
 0.28313278906E+01 0.47176310570E+01 0.66706413865E+01 0.84806251179E+01 0.99653092668E+01
 0.11012136878E+02 0.11611068650E+02 0.11859714467E+02 0.11932548204E+02 0.12022052555E+02
 0.12209956097E+02 0.12433315673E+02 0.12634371711E+02 0.12779285200E+02 0.12853689525E+02
 0.12853709062E+02 0.12779302563E+02 0.12634314044E+02 0.12433174070E+02 0.12209815544E+02
 0.12022016065E+02 0.11932636391E+02 0.11859851441E+02 0.11611162534E+02 0.11012157408E+02
 0.99652870369E+01 0.84806002564E+01 0.66706305437E+01 0.47176312540E+01 0.28313303874E+01
 0.12130589482E+01 0.31829384907E-01 -.59071880914E+00 -.59071537464E+00 0.24510778756E+01
 0.35521196330E+01 0.49991380883E+01 0.66706413865E+01 0.83970351835E+01 0.99870660263E+01
 0.11277554345E+02 0.12187672360E+02 0.12750190060E+02 0.13100013211E+02 0.13421412847E+02
 0.13840683272E+02 0.14305534131E+02 0.14735441406E+02 0.15072399054E+02 0.15283598139E+02
 0.15355150743E+02 0.15283638775E+02 0.15072395790E+02 0.14735324734E+02 0.14305341162E+02
 0.13840538729E+02 0.13421414326E+02 0.13100141460E+02 0.12750337161E+02 0.12187748526E+02
 0.11277554444E+02 0.99870397378E+01 0.83970193558E+01 0.66706365077E+01 0.49991346328E+01
 0.35521204085E+01 0.24510881772E+01 0.17678641439E+01 0.15368576492E+01 0.17678522567E+01
 0.47713772626E+01 0.57446077401E+01 0.70141852119E+01 0.84806251179E+01 0.99870660263E+01
 0.11361262105E+02 0.12478297804E+02 0.13312668003E+02 0.13949833461E+02 0.14547602994E+02
 0.15246781292E+02 0.16014177633E+02 0.16747830517E+02 0.17361289530E+02 0.17795571288E+02
 0.18018927022E+02 0.18018990870E+02 0.17795687744E+02 0.17361310066E+02 0.16747683472E+02
 0.16013939845E+02 0.15246607389E+02 0.14547592230E+02 0.13949960695E+02 0.13312825769E+02
 0.12478391273E+02 0.11361269401E+02 0.99870278585E+01 0.84805932001E+01 0.70141813848E+01
 0.57446211270E+01 0.47713883558E+01 0.41303239049E+01 0.38164931653E+01 0.38164940995E+01
 0.41303218929E+01 0.66964198898E+01 0.75542554707E+01 0.86761069133E+01 0.99653092668E+01
 0.11277554345E+02 0.12478297804E+02 0.13504819912E+02 0.14397512861E+02 0.15279817653E+02
 0.16284928055E+02 0.17394027909E+02 0.18488819039E+02 0.19453441476E+02 0.20196775956E+02
 0.20661259078E+02 0.20818799946E+02 0.20661473980E+02 0.20197000108E+02 0.19453449552E+02
 0.18488566172E+02 0.17393681461E+02 0.16284713248E+02 0.15279835073E+02 0.14397690778E+02
 0.13505010235E+02 0.12478397701E+02 0.11277554900E+02 0.99652659099E+01 0.86760785058E+01
 0.75542589706E+01 0.66964311054E+01 0.61276179051E+01 0.58174246933E+01 0.57208090067E+01
 0.58174386938E+01 0.61276231755E+01 0.80587805919E+01 0.88433993183E+01 0.98593718161E+01
 0.11012136878E+02 0.12187672360E+02 0.13312668003E+02 0.14397512861E+02 0.15533893691E+02
 0.16837286307E+02 0.18293593882E+02 0.19775531618E+02 0.21141055414E+02 0.22263919532E+02
 0.23048711766E+02 0.23444272404E+02 0.23444410885E+02 0.23049029410E+02 0.22264178540E+02
 0.21141038301E+02 0.19775222201E+02 0.18293206075E+02 0.16837077529E+02 0.15533945203E+02
 0.14397704985E+02 0.13312839187E+02 0.12187754937E+02 0.11012151157E+02 0.98593545104E+01
 0.88433721945E+01 0.80587595949E+01 0.75383069128E+01 0.72499080187E+01 0.71298353719E+01
 0.71298290515E+01 0.72498983562E+01 0.75383104530E+01 0.88213325016E+01 0.95781123646E+01
 0.10533344977E+02 0.11611068650E+02 0.12750190060E+02 0.13949833461E+02 0.15279817653E+02
 0.16837286307E+02 0.18606258220E+02 0.20460154308E+02 0.22238936940E+02 0.23777708327E+02
 0.24915643686E+02 0.25587553656E+02 0.25806664575E+02 0.25587845949E+02 0.24916068178E+02
 0.23778017809E+02 0.22238942458E+02 0.20459862767E+02 0.18605872485E+02 0.16837045154E+02
 0.15279818260E+02 0.13949994322E+02 0.12750359555E+02 0.11611152699E+02 0.10533346908E+02
 0.95780859446E+01 0.88213181087E+01 0.83044325869E+01 0.80106053897E+01 0.78787240393E+01
 0.78438846154E+01 0.78787241166E+01 0.80106019876E+01 0.83044313184E+01 0.90504998310E+01
 0.98185564136E+01 0.10766976602E+02 0.11859714467E+02 0.13100013211E+02 0.14547602994E+02
 0.16284928055E+02 0.18293593882E+02 0.20460154308E+02 0.22619976930E+02 0.24572040036E+02
 0.26082646421E+02 0.27054974578E+02 0.27516856833E+02 0.27517039805E+02 0.27055417346E+02
 0.26083114248E+02 0.24572323791E+02 0.22619976410E+02 0.20459891487E+02 0.18293214242E+02
 0.16284649988E+02 0.14547570315E+02 0.13100170355E+02 0.11859871982E+02 0.10767014179E+02
 0.98185208453E+01 0.90504940223E+01 0.84977196658E+01 0.81591101581E+01 0.79907654674E+01
 0.79293099070E+01 0.79293335588E+01 0.79907968895E+01 0.81590957736E+01 0.84976828707E+01
 0.88803584750E+01 0.96987562114E+01 0.10711055466E+02 0.11932548204E+02 0.13421412847E+02
 0.15246781292E+02 0.17394027909E+02 0.19775531618E+02 0.22238936940E+02 0.24572040036E+02
 0.26477171452E+02 0.27788609147E+02 0.28519789433E+02 0.28750161910E+02 0.28519958077E+02
 0.27788930773E+02 0.26477558222E+02 0.24572317430E+02 0.22238945915E+02 0.19775275035E+02
 0.17393691598E+02 0.15246576348E+02 0.13421400998E+02 0.11932635579E+02 0.10711128693E+02
 0.96987814126E+01 0.88803597847E+01 0.82645439342E+01 0.78524193256E+01 0.76173978075E+01
 0.75096022348E+01 0.74803745040E+01 0.75095992261E+01 0.76173951174E+01 0.78524182295E+01
 0.82645447275E+01 0.84793163796E+01 0.93966926002E+01 0.10557993199E+02 0.12022052555E+02
 0.13840683272E+02 0.16014177633E+02 0.18488819039E+02 0.21141055414E+02 0.23777708327E+02
 0.26082646421E+02 0.27788609147E+02 0.28846448532E+02 0.29334969498E+02 0.29334910675E+02
 0.28846413291E+02 0.27788810659E+02 0.26083038238E+02 0.23777998590E+02 0.21141040470E+02
 0.18488585094E+02 0.16013945888E+02 0.13840563787E+02 0.12022016633E+02 0.10558000886E+02
 0.93967359831E+01 0.84793626837E+01 0.77773575816E+01 0.72767299050E+01 0.69567095754E+01
 0.67810815132E+01 0.67076001725E+01 0.67075724647E+01 0.67810438266E+01 0.69567232560E+01
 0.72767723273E+01 0.77773601796E+01 0.80217718449E+01 0.90968401873E+01 0.10480250459E+02
 0.12209956097E+02 0.14305534131E+02 0.16747830517E+02 0.19453441476E+02 0.22263919532E+02
 0.24915643686E+02 0.27054974578E+02 0.28519789433E+02 0.29334969498E+02 0.29591605237E+02
 0.29334889458E+02 0.28519787029E+02 0.27055170132E+02 0.24915961994E+02 0.22264150868E+02
 0.19453445372E+02 0.16747655368E+02 0.14305342430E+02 0.12209862910E+02 0.10480248934E+02
 0.90968604345E+01 0.80217734391E+01 0.72033367880E+01 0.66027595944E+01 0.61908463568E+01
 0.59360662053E+01 0.58032239535E+01 0.57628309035E+01 0.58032388460E+01 0.59360763261E+01
 0.61908432757E+01 0.66027571965E+01 0.72033432785E+01 0.76586624603E+01 0.89154160770E+01
 0.10496260228E+02 0.12433315673E+02 0.14735441406E+02 0.17361289530E+02 0.20196775956E+02
 0.23048711766E+02 0.25587553656E+02 0.27516856833E+02 0.28750161910E+02 0.29334910675E+02
 0.29334889458E+02 0.28750119643E+02 0.27516863072E+02 0.25587687811E+02 0.23048956085E+02
 0.20196977212E+02 0.17361299438E+02 0.14735288878E+02 0.12433173466E+02 0.10496237286E+02
 0.89154541524E+01 0.76586601688E+01 0.66888452544E+01 0.59690494044E+01 0.54587658993E+01
 0.51206824045E+01 0.49204886886E+01 0.48290689844E+01 0.48290985944E+01 0.49205310744E+01
 0.51206743639E+01 0.54587303081E+01 0.59690538618E+01 0.66888842218E+01 0.74221464502E+01
 0.88192124199E+01 0.10547826306E+02 0.12634371711E+02 0.15072399054E+02 0.17795571288E+02
 0.20661259078E+02 0.23444272404E+02 0.25806664575E+02 0.27517039805E+02 0.28519958077E+02
 0.28846413291E+02 0.28519787029E+02 0.27516863072E+02 0.25806652581E+02 0.23444441259E+02
 0.20661471146E+02 0.17795682530E+02 0.15072384534E+02 0.12634306387E+02 0.10547780379E+02
 0.88191976904E+01 0.74221451639E+01 0.63200305399E+01 0.54769486865E+01 0.48587292084E+01
 0.44307421200E+01 0.41579088957E+01 0.40086913732E+01 0.39615058835E+01 0.40086835356E+01
 0.41579042133E+01 0.44307444962E+01 0.48587319734E+01 0.54769481304E+01 0.63200292054E+01
 0.72655386676E+01 0.87652712329E+01 0.10597867019E+02 0.12779285200E+02 0.15283598139E+02
 0.18018927022E+02 0.20818799946E+02 0.23444410885E+02 0.25587845949E+02 0.27055417346E+02
 0.27788930773E+02 0.27788810659E+02 0.27055170132E+02 0.25587687811E+02 0.23444441259E+02
 0.20818938575E+02 0.18019045051E+02 0.15283649768E+02 0.12779297398E+02 0.10597860934E+02
 0.87652469391E+01 0.72655120308E+01 0.60653105270E+01 0.51287971810E+01 0.44220718356E+01
 0.39122760348E+01 0.35669865957E+01 0.33563939955E+01 0.32573850715E+01 0.32573689299E+01
 0.33563702258E+01 0.35669880278E+01 0.39122909622E+01 0.44220686557E+01 0.51287806579E+01
 0.60653128620E+01 0.71608452505E+01 0.87328073168E+01 0.10630203317E+02 0.12853689525E+02
 0.15355150743E+02 0.18018990870E+02 0.20661473980E+02 0.23049029410E+02 0.24916068178E+02
 0.26083114248E+02 0.26477558222E+02 0.26083038238E+02 0.24915961994E+02 0.23048956085E+02
 0.20661471146E+02 0.18019045051E+02 0.15355213429E+02 0.12853721583E+02 0.10630203243E+02
 0.87327980536E+01 0.71608427068E+01 0.58885389106E+01 0.48823918102E+01 0.41088401573E+01
 0.35353693764E+01 0.31304092183E+01 0.28649764651E+01 0.27157249075E+01 0.26676832105E+01
 0.27157270723E+01 0.28649774100E+01 0.31304085617E+01 0.35353706046E+01 0.41088436953E+01
 0.48823931436E+01 0.58885372553E+01 0.70982215838E+01 0.87163663950E+01 0.10641017714E+02
 0.12853709062E+02 0.15283638775E+02 0.17795687744E+02 0.20197000108E+02 0.22264178540E+02
 0.23778017809E+02 0.24572323791E+02 0.24572317430E+02 0.23777998590E+02 0.22264150868E+02
 0.20196977212E+02 0.17795682530E+02 0.15283649768E+02 0.12853721583E+02 0.10641021099E+02
 0.87163649375E+01 0.70982252854E+01 0.57731426740E+01 0.47136659526E+01 0.38883778457E+01
 0.32652329053E+01 0.28126164790E+01 0.25012943434E+01 0.23073383084E+01 0.22143987034E+01
 0.22144007675E+01 0.23073428326E+01 0.25012993090E+01 0.28126223092E+01 0.32652388222E+01
 0.38883789077E+01 0.47136589842E+01 0.57731330867E+01 0.70770817116E+01 0.87163591125E+01
 0.10630200781E+02 0.12779302563E+02 0.15072395790E+02 0.17361310066E+02 0.19453449552E+02
 0.21141038301E+02 0.22238942458E+02 0.22619976410E+02 0.22238945915E+02 0.21141040470E+02
 0.19453445372E+02 0.17361299438E+02 0.15072384534E+02 0.12779297398E+02 0.10630203243E+02
 0.87163649375E+01 0.70770858497E+01 0.57151708575E+01 0.46133584344E+01 0.37454014111E+01
 0.30812331914E+01 0.25894349181E+01 0.22400063377E+01 0.20078061536E+01 0.18750745722E+01
 0.18318669318E+01 0.18750771291E+01 0.20078087720E+01 0.22400065769E+01 0.25894326046E+01
 0.30812302254E+01 0.37453997636E+01 0.46133581406E+01 0.57151697083E+01 0.70982285489E+01
 0.87327882803E+01 0.10597846607E+02 0.12634314044E+02 0.14735324734E+02 0.16747683472E+02
 0.18488566172E+02 0.19775222201E+02 0.20459862767E+02 0.20459891487E+02 0.19775275035E+02
 0.18488585094E+02 0.16747655368E+02 0.14735288878E+02 0.12634306387E+02 0.10597860934E+02
 0.87327980536E+01 0.70982252854E+01 0.57151708575E+01 0.45798688241E+01 0.36744805834E+01
 0.29733490718E+01 0.24466529356E+01 0.20640434571E+01 0.17988782130E+01 0.16315624798E+01
 0.15504336159E+01 0.15504387680E+01 0.16315684710E+01 0.17988722154E+01 0.20640299960E+01
 0.24466461771E+01 0.29733517017E+01 0.36744844969E+01 0.45798718895E+01 0.57151767719E+01
 0.71608490804E+01 0.87652509851E+01 0.10547781849E+02 0.12433174070E+02 0.14305341162E+02
 0.16013939845E+02 0.17393681461E+02 0.18293206075E+02 0.18605872485E+02 0.18293214242E+02
 0.17393691598E+02 0.16013945888E+02 0.14305342430E+02 0.12433173466E+02 0.10547780379E+02
 0.87652469391E+01 0.71608427068E+01 0.57731426740E+01 0.46133584344E+01 0.36744805834E+01
 0.29377054425E+01 0.23768356748E+01 0.19625521843E+01 0.16672667007E+01 0.14693630610E+01
 0.13550781258E+01 0.13176206540E+01 0.13550762377E+01 0.14693595448E+01 0.16672640888E+01
 0.19625533826E+01 0.23768394632E+01 0.29377075175E+01 0.36744799444E+01 0.46133590631E+01
 0.57731474326E+01 0.72655338753E+01 0.88192092775E+01 0.10496214005E+02 0.12209815544E+02
 0.13840538729E+02 0.15246607389E+02 0.16284713248E+02 0.16837077529E+02 0.16837045154E+02
 0.16284649988E+02 0.15246576348E+02 0.13840563787E+02 0.12209862910E+02 0.10496237286E+02
 0.88191976904E+01 0.72655120308E+01 0.58885389106E+01 0.47136659526E+01 0.37454014111E+01
 0.29733490718E+01 0.23768356748E+01 0.19294003082E+01 0.16038570857E+01 0.13771149225E+01
 0.12330995001E+01 0.11628867336E+01 0.11628852845E+01 0.12330967783E+01 0.13771146670E+01
 0.16038622741E+01 0.19294099827E+01 0.23768438011E+01 0.29733482027E+01 0.37453909012E+01
 0.47136570380E+01 0.58885461416E+01 0.74221409318E+01 0.89154451048E+01 0.10480239637E+02
 0.12022016065E+02 0.13421414326E+02 0.14547592230E+02 0.15279835073E+02 0.15533945203E+02
 0.15279818260E+02 0.14547570315E+02 0.13421400998E+02 0.12022016633E+02 0.10480248934E+02
 0.89154541524E+01 0.74221451639E+01 0.60653105270E+01 0.48823918102E+01 0.38883778457E+01
 0.30812331914E+01 0.24466529356E+01 0.19625521843E+01 0.16038570857E+01 0.13472678183E+01
 0.11747993363E+01 0.10750547036E+01 0.10423506427E+01 0.10750568980E+01 0.11748014817E+01
 0.13472688794E+01 0.16038582209E+01 0.19625536980E+01 0.24466527174E+01 0.30812297546E+01
 0.38883731669E+01 0.48823889517E+01 0.60653090100E+01 0.76586683989E+01 0.90968963038E+01
 0.10558033347E+02 0.11932636391E+02 0.13100141460E+02 0.13949960695E+02 0.14397690778E+02
 0.14397704985E+02 0.13949994322E+02 0.13100170355E+02 0.11932635579E+02 0.10558000886E+02
 0.90968604345E+01 0.76586601688E+01 0.63200305399E+01 0.51287971810E+01 0.41088401573E+01
 0.32652329053E+01 0.25894349181E+01 0.20640434571E+01 0.16672667007E+01 0.13771149225E+01
 0.11747993363E+01 0.10466644029E+01 0.98444710953E+00 0.98444418573E+00 0.10466619366E+01
 0.11748038943E+01 0.13771186814E+01 0.16672587153E+01 0.20640301686E+01 0.25894335435E+01
 0.32652439362E+01 0.41088427498E+01 0.51287794427E+01 0.63200115036E+01 0.80217906321E+01
 0.93967469891E+01 0.10711122510E+02 0.11859851441E+02 0.12750337161E+02 0.13312825769E+02
 0.13505010235E+02 0.13312839187E+02 0.12750359555E+02 0.11859871982E+02 0.10711128693E+02
 0.93967359831E+01 0.80217734391E+01 0.66888452544E+01 0.54769486865E+01 0.44220718356E+01
 0.35353693764E+01 0.28126164790E+01 0.22400063377E+01 0.17988782130E+01 0.14693630610E+01
 0.12330995001E+01 0.10750547036E+01 0.98444710953E+00 0.95493481212E+00 0.98444520829E+00
 0.10750542899E+01 0.12331004015E+01 0.14693612638E+01 0.17988738909E+01 0.22400055802E+01
 0.28126219596E+01 0.35353752645E+01 0.44220728870E+01 0.54769497997E+01 0.66888552111E+01
 0.84793352801E+01 0.96987765632E+01 0.10767029447E+02 0.11611162534E+02 0.12187748526E+02
 0.12478391273E+02 0.12478397701E+02 0.12187754937E+02 0.11611152699E+02 0.10767014179E+02
 0.96987814126E+01 0.84793626837E+01 0.72033367880E+01 0.59690494044E+01 0.48587292084E+01
 0.39122760348E+01 0.31304092183E+01 0.25012943434E+01 0.20078061536E+01 0.16315624798E+01
 0.13550781258E+01 0.11628867336E+01 0.10423506427E+01 0.98444418573E+00 0.98444520829E+00
 0.10423509493E+01 0.11628838125E+01 0.13550761008E+01 0.16315660979E+01 0.20078121125E+01
 0.25012969844E+01 0.31304126680E+01 0.39122891972E+01 0.48587466427E+01 0.59690505747E+01
 0.72033132523E+01 0.88803614234E+01 0.98185346117E+01 0.10533361679E+02 0.11012157408E+02
 0.11277554444E+02 0.11361269401E+02 0.11277554900E+02 0.11012151157E+02 0.10533346908E+02
 0.98185208453E+01 0.88803597847E+01 0.77773575816E+01 0.66027595944E+01 0.54587658993E+01
 0.44307421200E+01 0.35669865957E+01 0.28649764651E+01 0.23073383084E+01 0.18750745722E+01
 0.15504336159E+01 0.13176206540E+01 0.11628852845E+01 0.10750568980E+01 0.10466619366E+01
 0.10750542899E+01 0.11628838125E+01 0.13176225913E+01 0.15504369520E+01 0.18750761601E+01
 0.23073378864E+01 0.28649761048E+01 0.35669867878E+01 0.44307396638E+01 0.54587568189E+01
 0.66027451527E+01 0.77773465190E+01 0.90504812281E+01 0.95780706958E+01 0.98593595574E+01
 0.99652870369E+01 0.99870397378E+01 0.99870278585E+01 0.99652659099E+01 0.98593545104E+01
 0.95780859446E+01 0.90504940223E+01 0.82645439342E+01 0.72767299050E+01 0.61908463568E+01
 0.51206824045E+01 0.41579088957E+01 0.33563939955E+01 0.27157249075E+01 0.22143987034E+01
 0.18318669318E+01 0.15504387680E+01 0.13550762377E+01 0.12330967783E+01 0.11748014817E+01
 0.11748038943E+01 0.12331004015E+01 0.13550761008E+01 0.15504369520E+01 0.18318694472E+01
 0.22144037006E+01 0.27157203584E+01 0.33563726242E+01 0.41578828906E+01 0.51206754343E+01
 0.61908674753E+01 0.72767602744E+01 0.82645556651E+01 0.88213029506E+01 0.88433680820E+01
 0.86760845827E+01 0.84806002564E+01 0.83970193558E+01 0.84805932001E+01 0.86760785058E+01
 0.88433721945E+01 0.88213181087E+01 0.84977196658E+01 0.78524193256E+01 0.69567095754E+01
 0.59360662053E+01 0.49204886886E+01 0.40086913732E+01 0.32573850715E+01 0.26676832105E+01
 0.22144007675E+01 0.18750771291E+01 0.16315684710E+01 0.14693595448E+01 0.13771146670E+01
 0.13472688794E+01 0.13771186814E+01 0.14693612638E+01 0.16315660979E+01 0.18750761601E+01
 0.22144037006E+01 0.26676841774E+01 0.32573799320E+01 0.40086875282E+01 0.49204972864E+01
 0.59360860547E+01 0.69567255617E+01 0.78524184250E+01 0.84977045254E+01 0.80587603485E+01
 0.75542468753E+01 0.70141670546E+01 0.66706305437E+01 0.66706365077E+01 0.70141813848E+01
 0.75542589706E+01 0.80587595949E+01 0.83044325869E+01 0.81591101581E+01 0.76173978075E+01
 0.67810815132E+01 0.58032239535E+01 0.48290689844E+01 0.39615058835E+01 0.32573689299E+01
 0.27157270723E+01 0.23073428326E+01 0.20078087720E+01 0.17988722154E+01 0.16672640888E+01
 0.16038622741E+01 0.16038582209E+01 0.16672587153E+01 0.17988738909E+01 0.20078121125E+01
 0.23073378864E+01 0.27157203584E+01 0.32573799320E+01 0.39615379937E+01 0.48290970718E+01
 0.58032217691E+01 0.67810542176E+01 0.76173748910E+01 0.81591090706E+01 0.83044421898E+01
 0.66964238122E+01 0.57446131845E+01 0.49991309348E+01 0.47176312540E+01 0.49991346328E+01
 0.57446211270E+01 0.66964311054E+01 0.75383069128E+01 0.80106053897E+01 0.79907654674E+01
 0.75096022348E+01 0.67076001725E+01 0.57628309035E+01 0.48290985944E+01 0.40086835356E+01
 0.33563702258E+01 0.28649774100E+01 0.25012993090E+01 0.22400065769E+01 0.20640299960E+01
 0.19625533826E+01 0.19294099827E+01 0.19625536980E+01 0.20640301686E+01 0.22400055802E+01
 0.25012969844E+01 0.28649761048E+01 0.33563726242E+01 0.40086875282E+01 0.48290970718E+01
 0.57628202380E+01 0.67075875465E+01 0.75095995880E+01 0.79907752055E+01 0.80106167249E+01
 0.75383086627E+01 0.47714027549E+01 0.35521277149E+01 0.28313315436E+01 0.28313303874E+01
 0.35521204085E+01 0.47713883558E+01 0.61276179051E+01 0.72499080187E+01 0.78787240393E+01
 0.79293099070E+01 0.74803745040E+01 0.67075724647E+01 0.58032388460E+01 0.49205310744E+01
 0.41579042133E+01 0.35669880278E+01 0.31304085617E+01 0.28126223092E+01 0.25894326046E+01
 0.24466461771E+01 0.23768394632E+01 0.23768438011E+01 0.24466527174E+01 0.25894335435E+01
 0.28126219596E+01 0.31304126680E+01 0.35669867878E+01 0.41578828906E+01 0.49204972864E+01
 0.58032217691E+01 0.67075875465E+01 0.74804024052E+01 0.79293215629E+01 0.78787168083E+01
 0.72499030046E+01 0.61276273867E+01 0.24511072418E+01 0.12130706069E+01 0.75733520776E+00
 0.12130589482E+01 0.24510881772E+01 0.41303239049E+01 0.58174246933E+01 0.71298353719E+01
 0.78438846154E+01 0.79293335588E+01 0.75095992261E+01 0.67810438266E+01 0.59360763261E+01
 0.51206743639E+01 0.44307444962E+01 0.39122909622E+01 0.35353706046E+01 0.32652388222E+01
 0.30812302254E+01 0.29733517017E+01 0.29377075175E+01 0.29733482027E+01 0.30812297546E+01
 0.32652439362E+01 0.35353752645E+01 0.39122891972E+01 0.44307396638E+01 0.51206754343E+01
 0.59360860547E+01 0.67810542176E+01 0.75095995880E+01 0.79293215629E+01 0.78438689103E+01
 0.71298281682E+01 0.58174319917E+01 0.41303418438E+01 0.31851351820E-01 -.96472652456E+00
 -.96473902963E+00 0.31829384907E-01 0.17678641439E+01 0.38164931653E+01 0.57208090067E+01
 0.71298290515E+01 0.78787241166E+01 0.79907968895E+01 0.76173951174E+01 0.69567232560E+01
 0.61908432757E+01 0.54587303081E+01 0.48587319734E+01 0.44220686557E+01 0.41088436953E+01
 0.38883789077E+01 0.37453997636E+01 0.36744844969E+01 0.36744799444E+01 0.37453909012E+01
 0.38883731669E+01 0.41088427498E+01 0.44220728870E+01 0.48587466427E+01 0.54587568189E+01
 0.61908674753E+01 0.69567255617E+01 0.76173748910E+01 0.79907752055E+01 0.78787168083E+01
 0.71298281682E+01 0.57208006014E+01 0.38164833148E+01 0.17678708211E+01 -.21053117948E+01
 -.26541606866E+01 -.21053126503E+01 -.59071880914E+00 0.15368576492E+01 0.38164940995E+01
 0.58174386938E+01 0.72498983562E+01 0.80106019876E+01 0.81590957736E+01 0.78524182295E+01
 0.72767723273E+01 0.66027571965E+01 0.59690538618E+01 0.54769481304E+01 0.51287806579E+01
 0.48823931436E+01 0.47136589842E+01 0.46133581406E+01 0.45798718895E+01 0.46133590631E+01
 0.47136570380E+01 0.48823889517E+01 0.51287794427E+01 0.54769497997E+01 0.59690505747E+01
 0.66027451527E+01 0.72767602744E+01 0.78524184250E+01 0.81591090706E+01 0.80106167249E+01
 0.72499030046E+01 0.58174319917E+01 0.38164833148E+01 0.15368503141E+01 -.59072058903E+00
 -.35784721983E+01 -.35784584479E+01 -.25046393697E+01 -.59071537464E+00 0.17678522567E+01
 0.41303218929E+01 0.61276231755E+01 0.75383104530E+01 0.83044313184E+01 0.84976828707E+01
 0.82645447275E+01 0.77773601796E+01 0.72033432785E+01 0.66888842218E+01 0.63200292054E+01
 0.60653128620E+01 0.58885372553E+01 0.57731330867E+01 0.57151697083E+01 0.57151767719E+01
 0.57731474326E+01 0.58885461416E+01 0.60653090100E+01 0.63200115036E+01 0.66888552111E+01
 0.72033132523E+01 0.77773465190E+01 0.82645556651E+01 0.84977045254E+01 0.83044421898E+01
 0.75383086627E+01 0.61276273867E+01 0.41303418438E+01 0.17678708211E+01 -.59072058903E+00
 -.25046635033E+01 -.35784662314E+01 -.26541777999E+01 -.96474181864E+00 0.12130608281E+01
 0.35521196330E+01 0.57446077401E+01 0.75542554707E+01 0.88433993183E+01 0.95781123646E+01
 0.98185564136E+01 0.96987562114E+01 0.93966926002E+01 0.90968401873E+01 0.89154160770E+01
 0.88192124199E+01 0.87652712329E+01 0.87328073168E+01 0.87163663950E+01 0.87163591125E+01
 0.87327882803E+01 0.87652509851E+01 0.88192092775E+01 0.89154451048E+01 0.90968963038E+01
 0.93967469891E+01 0.96987765632E+01 0.98185346117E+01 0.95780706958E+01 0.88433680820E+01
 0.75542468753E+01 0.57446131845E+01 0.35521277149E+01 0.12130706069E+01 -.96472652456E+00
 -.26541606866E+01 -.35784584479E+01 -.26541777999E+01 -.14609136497E+01 0.34209870018E+00
 0.25159058309E+01 0.47913076130E+01 0.69108253714E+01 0.86650610510E+01 0.99224232055E+01
 0.10649654304E+02 0.10916436499E+02 0.10877025950E+02 0.10728886366E+02 0.10651204866E+02
 0.10669644506E+02 0.10724703859E+02 0.10777840009E+02 0.10812153689E+02 0.10823627869E+02
 0.10812126401E+02 0.10777760761E+02 0.10724594313E+02 0.10669591826E+02 0.10651273577E+02
 0.10729030701E+02 0.10877127255E+02 0.10916427547E+02 0.10649577821E+02 0.99223631523E+01
 0.86650477672E+01 0.69108282959E+01 0.47912981779E+01 0.25158939254E+01 0.34210737284E+00
 -.14608845253E+01 -.26541521482E+01 -.30717720622E+01 -.96474181864E+00 0.34209870018E+00
 0.21329633770E+01 0.42212375488E+01 0.63852121544E+01 0.83950990910E+01 0.10052110836E+02
 0.11233238932E+02 0.11925302260E+02 0.12229734528E+02 0.12329873225E+02 0.12429720915E+02
 0.12629531519E+02 0.12867725872E+02 0.13082402499E+02 0.13237113518E+02 0.13316481268E+02
 0.13316489458E+02 0.13237111005E+02 0.13082345068E+02 0.12867617660E+02 0.12629436614E+02
 0.12429702308E+02 0.12329929027E+02 0.12229805071E+02 0.11925334783E+02 0.11233231049E+02
 0.10052091232E+02 0.83950851429E+01 0.63851997918E+01 0.42212223430E+01 0.21329531472E+01
 0.34210194694E+00 -.96472990518E+00 -.16533194252E+01 -.16533259008E+01 0.12130608281E+01
 0.25159058309E+01 0.42212375488E+01 0.61834650980E+01 0.82050138056E+01 0.10067319512E+02
 0.11585739882E+02 0.12667942085E+02 0.13346669601E+02 0.13766544299E+02 0.14126925835E+02
 0.14579476521E+02 0.15083318688E+02 0.15549809620E+02 0.15915039423E+02 0.16143470680E+02
 0.16220741704E+02 0.16143557104E+02 0.15915133249E+02 0.15549797450E+02 0.15083151741E+02
 0.14579247326E+02 0.14126805333E+02 0.13766610265E+02 0.13346824338E+02 0.12668030856E+02
 0.11585721744E+02 0.10067275976E+02 0.82050113208E+01 0.61834783665E+01 0.42212214262E+01
 0.25158767272E+01 0.12130608445E+01 0.40204493904E+00 0.12734814715E+00 0.40202405763E+00
 0.35521196330E+01 0.47913076130E+01 0.63852121544E+01 0.82050138056E+01 0.10060017939E+02
 0.11746533147E+02 0.13117810556E+02 0.14140758520E+02 0.14907548142E+02 0.15592378687E+02
 0.16363149864E+02 0.17210954973E+02 0.18021728018E+02 0.18697723109E+02 0.19174056837E+02
 0.19417990831E+02 0.19418062436E+02 0.19174220927E+02 0.18697855572E+02 0.18021713346E+02
 0.17210783880E+02 0.16362942840E+02 0.15592284802E+02 0.14907605601E+02 0.14140870466E+02
 0.13117863986E+02 0.11746513243E+02 0.10059986375E+02 0.82050083247E+01 0.63852143407E+01
 0.47912988509E+01 0.35521148958E+01 0.27242664205E+01 0.23145933359E+01 0.23145841356E+01
 0.27242549444E+01 0.57446077401E+01 0.69108253714E+01 0.83950990910E+01 0.10067319512E+02
 0.11746533147E+02 0.13267857032E+02 0.14552511033E+02 0.15641867682E+02 0.16673741754E+02
 0.17807158929E+02 0.19056926737E+02 0.20289625398E+02 0.21370495263E+02 0.22197075152E+02
 0.22708545764E+02 0.22879893308E+02 0.22708688398E+02 0.22197327820E+02 0.21370746742E+02
 0.20289715021E+02 0.19056782213E+02 0.17806892639E+02 0.16673560215E+02 0.15641873477E+02
 0.14552622832E+02 0.13267929529E+02 0.11746514848E+02 0.10067267900E+02 0.83950776139E+01
 0.69108355006E+01 0.57446172839E+01 0.49449713185E+01 0.44936719917E+01 0.43497918838E+01
 0.44936813735E+01 0.49449766696E+01 0.75542554707E+01 0.86650610510E+01 0.10052110836E+02
 0.11585739882E+02 0.13117810556E+02 0.14552511033E+02 0.15895245196E+02 0.17248399559E+02
 0.18750547496E+02 0.20425104319E+02 0.22125714034E+02 0.23681545796E+02 0.24931357038E+02
 0.25759315364E+02 0.26158697916E+02 0.26158784643E+02 0.25759597688E+02 0.24931795029E+02
 0.23681919755E+02 0.22125767551E+02 0.20424822970E+02 0.18750197016E+02 0.17248247526E+02
 0.15895310595E+02 0.14552624620E+02 0.13117847533E+02 0.11585715145E+02 0.10052083550E+02
 0.86650432169E+01 0.75542338521E+01 0.67786489782E+01 0.63191295814E+01 0.61142745819E+01
 0.61142721912E+01 0.63191329303E+01 0.67786674095E+01 0.88433993183E+01 0.99224232055E+01
 0.11233238932E+02 0.12667942085E+02 0.14140758520E+02 0.15641867682E+02 0.17248399559E+02
 0.19078743422E+02 0.21154382866E+02 0.23323654241E+02 0.25380741287E+02 0.27060099369E+02
 0.28198039994E+02 0.28816894453E+02 0.29008035636E+02 0.28817076075E+02 0.28198392855E+02
 0.27060533497E+02 0.25381070011E+02 0.23323706546E+02 0.21154156798E+02 0.19078429700E+02
 0.17248224034E+02 0.15641900289E+02 0.14140882470E+02 0.12668003690E+02 0.11233201451E+02
 0.99223618856E+01 0.88433779647E+01 0.80651715615E+01 0.75858341543E+01 0.73460520594E+01
 0.72762030286E+01 0.73460800780E+01 0.75858515335E+01 0.80651700446E+01 0.95781123646E+01
 0.10649654304E+02 0.11925302260E+02 0.13346669601E+02 0.14907548142E+02 0.16673741754E+02
 0.18750547496E+02 0.21154382866E+02 0.23739957357E+02 0.26274933715E+02 0.28386995759E+02
 0.29837828798E+02 0.30653980638E+02 0.30996002639E+02 0.30996023897E+02 0.30654061365E+02
 0.29838030742E+02 0.28387368192E+02 0.26275360318E+02 0.23740150612E+02 0.21154171388E+02
 0.18750131181E+02 0.16673510962E+02 0.14907640838E+02 0.13346849636E+02 0.11925312931E+02
 0.10649537191E+02 0.95780702704E+01 0.87707926579E+01 0.82434264713E+01 0.79556086050E+01
 0.78378337478E+01 0.78378906757E+01 0.79556842624E+01 0.82433978231E+01 0.87707243630E+01
 0.98185564136E+01 0.10916436499E+02 0.12229734528E+02 0.13766544299E+02 0.15592378687E+02
 0.17807158929E+02 0.20425104319E+02 0.23323654241E+02 0.26274933715E+02 0.28834747139E+02