   2   2   0   0
  0.2779610E+02  0.4283936E-09  0.4283936E-09  0.4283936E-09  0.5000000E-15
  1.000000000000000E-004
  CAR 
 unknown system                          
     18.50883256     -9.62636121  301      3.03623074      1.00000000
     -9.626  0.0000E+00  0.0000E+00
     -9.533  0.0000E+00  0.0000E+00
     -9.439  0.0000E+00  0.0000E+00
     -9.345  0.0000E+00  0.0000E+00
     -9.251  0.0000E+00  0.0000E+00
     -9.157  0.0000E+00  0.0000E+00
     -9.064  0.0000E+00  0.0000E+00
     -8.970  0.0000E+00  0.0000E+00
     -8.876  0.0000E+00  0.0000E+00
     -8.782 -0.1699E-32 -0.1594E-33
     -8.689 -0.6373E-20 -0.5977E-21
     -8.595 -0.1931E-10 -0.1811E-11
     -8.501 -0.4621E-04 -0.4333E-05
     -8.407 -0.4779E-01 -0.4486E-02
     -8.313  0.1444E+01  0.1309E+00
     -8.220  0.1420E+01  0.2641E+00
     -8.126  0.8627E+00  0.3450E+00
     -8.032  0.7056E+00  0.4112E+00
     -7.938  0.6176E+00  0.4691E+00
     -7.844  0.5616E+00  0.5218E+00
     -7.751  0.5236E+00  0.5709E+00
     -7.657  0.4976E+00  0.6175E+00
     -7.563  0.4804E+00  0.6626E+00
     -7.469  0.4716E+00  0.7068E+00
     -7.376  0.4705E+00  0.7509E+00
     -7.282  0.4790E+00  0.7959E+00
     -7.188  0.5066E+00  0.8434E+00
     -7.094  0.5640E+00  0.8963E+00
     -7.000  0.1585E+01  0.1045E+01
     -6.907  0.1019E+01  0.1140E+01
     -6.813  0.8200E+00  0.1217E+01
     -6.719  0.8146E+00  0.1294E+01
     -6.625  0.9050E+00  0.1379E+01
     -6.531  0.1565E+01  0.1525E+01
     -6.438  0.5102E+01  0.2004E+01
     -6.344 -0.4006E-01  0.2000E+01
     -6.250 -0.1723E-02  0.2000E+01
     -6.156 -0.8859E-08  0.2000E+01
     -6.063  0.0000E+00  0.2000E+01
     -5.969  0.0000E+00  0.2000E+01
     -5.875  0.0000E+00  0.2000E+01
     -5.781  0.0000E+00  0.2000E+01
     -5.687  0.0000E+00  0.2000E+01
     -5.594  0.0000E+00  0.2000E+01
     -5.500  0.0000E+00  0.2000E+01
     -5.406  0.0000E+00  0.2000E+01
     -5.312  0.0000E+00  0.2000E+01
     -5.219  0.0000E+00  0.2000E+01
     -5.125  0.0000E+00  0.2000E+01
     -5.031  0.0000E+00  0.2000E+01
     -4.937  0.0000E+00  0.2000E+01
     -4.843  0.0000E+00  0.2000E+01
     -4.750  0.0000E+00  0.2000E+01
     -4.656  0.0000E+00  0.2000E+01
     -4.562  0.0000E+00  0.2000E+01
     -4.468  0.0000E+00  0.2000E+01
     -4.374  0.0000E+00  0.2000E+01
     -4.281  0.0000E+00  0.2000E+01
     -4.187  0.0000E+00  0.2000E+01
     -4.093  0.0000E+00  0.2000E+01
     -3.999  0.0000E+00  0.2000E+01
     -3.906  0.0000E+00  0.2000E+01
     -3.812  0.0000E+00  0.2000E+01
     -3.718  0.0000E+00  0.2000E+01
     -3.624  0.0000E+00  0.2000E+01
     -3.530  0.0000E+00  0.2000E+01
     -3.437  0.0000E+00  0.2000E+01
     -3.343  0.0000E+00  0.2000E+01
     -3.249  0.0000E+00  0.2000E+01
     -3.155 -0.5949E-42  0.2000E+01
     -3.061 -0.2419E-27  0.2000E+01
     -2.968 -0.6216E-16  0.2000E+01
     -2.874 -0.1262E-07  0.2000E+01
     -2.780 -0.1900E-02  0.2000E+01
     -2.686  0.7445E-01  0.2007E+01
     -2.593  0.2559E+01  0.2247E+01
     -2.499  0.4153E+01  0.2636E+01
     -2.405  0.3249E+01  0.2941E+01
     -2.311  0.7209E+00  0.3009E+01
     -2.217  0.3878E+00  0.3045E+01
     -2.124  0.3396E+00  0.3077E+01
     -2.030  0.3043E+00  0.3105E+01
     -1.936  0.2784E+00  0.3132E+01
     -1.842  0.2596E+00  0.3156E+01
     -1.749  0.2506E+00  0.3179E+01
     -1.655  0.2489E+00  0.3203E+01
     -1.561  0.2425E+00  0.3225E+01
     -1.467  0.2188E+00  0.3246E+01
     -1.373  0.1899E+00  0.3264E+01
     -1.280  0.1946E+00  0.3282E+01
     -1.186  0.2290E+00  0.3303E+01
     -1.092  0.2181E+00  0.3324E+01
     -0.998  0.1530E+00  0.3338E+01
     -0.904  0.1625E+00  0.3354E+01
     -0.811  0.2373E+00  0.3376E+01
     -0.717  0.1893E+00  0.3394E+01
     -0.623  0.1143E+00  0.3404E+01
     -0.529  0.2108E+00  0.3424E+01
     -0.436  0.2132E+00  0.3444E+01
     -0.342  0.8921E-01  0.3452E+01
     -0.248  0.7233E+00  0.3520E+01
     -0.154  0.5892E+00  0.3575E+01
     -0.060  0.9408E+00  0.3664E+01
      0.033  0.1139E+01  0.3771E+01
      0.127  0.1312E+01  0.3894E+01
      0.221  0.1819E+01  0.4064E+01
      0.315  0.1921E+01  0.4244E+01
      0.409  0.1635E+01  0.4398E+01
      0.502  0.1444E+01  0.4533E+01
      0.596  0.1507E+01  0.4674E+01
      0.690  0.2570E+01  0.4916E+01
      0.784  0.2124E+01  0.5115E+01
      0.877  0.1102E+01  0.5218E+01
      0.971  0.9083E+00  0.5303E+01
      1.065  0.8833E+00  0.5386E+01
      1.159  0.1046E+01  0.5484E+01
      1.253  0.8987E+00  0.5569E+01
      1.346  0.9604E+00  0.5659E+01
      1.440  0.9053E+00  0.5743E+01
      1.534  0.9491E+00  0.5833E+01
      1.628  0.9093E+00  0.5918E+01
      1.722  0.1011E+01  0.6013E+01
      1.815  0.1060E+01  0.6112E+01
      1.909  0.2027E+01  0.6302E+01
      2.003  0.1399E+01  0.6433E+01
      2.097  0.1804E+01  0.6603E+01
      2.190  0.1691E+01  0.6761E+01
      2.284  0.1267E+01  0.6880E+01
      2.378  0.1272E+01  0.6999E+01
      2.472  0.1249E+01  0.7116E+01
      2.566  0.1324E+01  0.7241E+01
      2.659  0.1563E+01  0.7387E+01
      2.753  0.1882E+01  0.7564E+01
      2.847  0.1458E+01  0.7700E+01
      2.941  0.1314E+01  0.7824E+01
      3.034  0.1870E+01  0.7999E+01
      3.128  0.2991E-02  0.7999E+01
      3.222  0.2852E+00  0.8026E+01
      3.316  0.2457E+00  0.8049E+01
      3.410  0.2113E+00  0.8069E+01
      3.503  0.1378E+00  0.8082E+01
      3.597  0.2282E+00  0.8103E+01
      3.691  0.2073E+00  0.8123E+01
      3.785  0.1261E+00  0.8134E+01
      3.879  0.2295E+00  0.8156E+01
      3.972  0.2282E+00  0.8177E+01
      4.066  0.1714E+00  0.8193E+01
      4.160  0.2278E+00  0.8215E+01
      4.254  0.7455E+00  0.8285E+01
      4.347  0.1396E+01  0.8416E+01
      4.441  0.1048E+01  0.8514E+01
      4.535  0.1321E+01  0.8638E+01
      4.629  0.2622E+00  0.8662E+01
      4.723  0.2616E+00  0.8687E+01
      4.816  0.3968E+00  0.8724E+01
      4.910  0.1577E+01  0.8872E+01
      5.004  0.8705E+00  0.8954E+01
      5.098  0.7425E+00  0.9023E+01
      5.192  0.6530E+00  0.9085E+01
      5.285  0.9632E+00  0.9175E+01
      5.379  0.1680E+01  0.9333E+01
      5.473  0.1329E+01  0.9457E+01
      5.567  0.1254E+01  0.9575E+01
      5.660  0.1345E+01  0.9701E+01
      5.754  0.1223E+01  0.9816E+01
      5.848  0.1205E+01  0.9929E+01
      5.942  0.1245E+01  0.1005E+02
      6.036  0.5316E+00  0.1010E+02
      6.129  0.4720E+00  0.1014E+02
      6.223  0.4683E+00  0.1018E+02
      6.317  0.4665E+00  0.1023E+02
      6.411  0.4675E+00  0.1027E+02
      6.504  0.4724E+00  0.1032E+02
      6.598  0.4821E+00  0.1036E+02
      6.692  0.5022E+00  0.1041E+02
      6.786  0.4969E+00  0.1045E+02
      6.880  0.1958E+01  0.1064E+02
      6.973  0.1328E+01  0.1076E+02
      7.067  0.9797E+00  0.1085E+02
      7.161  0.1015E+01  0.1095E+02
      7.255  0.1087E+01  0.1105E+02
      7.349  0.5302E+01  0.1155E+02
      7.442  0.2877E+01  0.1182E+02
      7.536  0.2205E+01  0.1203E+02
      7.630  0.1488E+01  0.1216E+02
      7.724  0.1405E+01  0.1230E+02
      7.817  0.2637E+01  0.1254E+02
      7.911  0.1824E+01  0.1271E+02
      8.005  0.2148E+01  0.1292E+02
      8.099  0.2712E+01  0.1317E+02
      8.193  0.1588E+01  0.1332E+02
      8.286  0.1423E+01  0.1345E+02
      8.380  0.1368E+01  0.1358E+02
      8.474  0.1171E+01  0.1369E+02
      8.568  0.7824E+00  0.1376E+02
      8.662  0.7222E+00  0.1383E+02
      8.755  0.7305E+00  0.1390E+02
      8.849  0.8840E+00  0.1398E+02
      8.943  0.7501E+00  0.1405E+02
      9.037  0.5174E+00  0.1410E+02
      9.130  0.4037E+00  0.1414E+02
      9.224  0.3914E+00  0.1418E+02
      9.318  0.4145E+00  0.1422E+02
      9.412  0.1019E+01  0.1431E+02
      9.506  0.8025E+00  0.1439E+02
      9.599  0.7317E+00  0.1446E+02
      9.693  0.6786E+00  0.1452E+02
      9.787  0.6627E+00  0.1458E+02
      9.881  0.7717E+00  0.1465E+02
      9.974  0.1694E+01  0.1481E+02
     10.068  0.1600E+01  0.1496E+02
     10.162  0.1637E+01  0.1512E+02
     10.256  0.8102E+00  0.1519E+02
     10.350  0.6217E+00  0.1525E+02
     10.443  0.6876E+00  0.1531E+02
     10.537  0.9248E+00  0.1540E+02
     10.631  0.7972E+00  0.1548E+02
     10.725  0.5819E+00  0.1553E+02
     10.819  0.1180E+01  0.1564E+02
     10.912  0.1155E+01  0.1575E+02
     11.006  0.1344E+01  0.1588E+02
     11.100  0.1304E+01  0.1600E+02
     11.194  0.1268E+01  0.1612E+02
     11.287  0.1113E+01  0.1622E+02
     11.381  0.1012E+01  0.1632E+02
     11.475  0.1366E+01  0.1644E+02
     11.569  0.1414E+01  0.1658E+02
     11.663  0.1286E+01  0.1670E+02
     11.756  0.2026E+01  0.1689E+02
     11.850  0.2370E+01  0.1711E+02
     11.944  0.1615E+01  0.1726E+02
     12.038  0.1588E+01  0.1741E+02
     12.132  0.2508E+01  0.1765E+02
     12.225  0.2539E+01  0.1788E+02
     12.319  0.1780E+01  0.1805E+02
     12.413  0.1606E+01  0.1820E+02
     12.507  0.1698E+01  0.1836E+02
     12.600  0.1412E+01  0.1849E+02
     12.694  0.1538E+01  0.1864E+02
     12.788  0.1023E+01  0.1873E+02
     12.882  0.1750E+01  0.1890E+02
     12.976  0.1037E+01  0.1899E+02
     13.069  0.5764E+00  0.1905E+02
     13.163  0.6015E+00  0.1910E+02
     13.257  0.4941E+00  0.1915E+02
     13.351  0.4956E+00  0.1920E+02
     13.444  0.6338E+00  0.1926E+02
     13.538  0.5445E+00  0.1931E+02
     13.632  0.3284E+00  0.1934E+02
     13.726  0.6661E+00  0.1940E+02
     13.820  0.1005E+01  0.1950E+02
     13.913  0.1318E+01  0.1962E+02
     14.007  0.1059E+01  0.1972E+02
     14.101  0.5262E+00  0.1977E+02
     14.195  0.5121E+00  0.1982E+02
     14.289  0.4633E+00  0.1986E+02
     14.382  0.3662E+00  0.1989E+02
     14.476  0.2647E+00  0.1992E+02
     14.570  0.5692E+00  0.1997E+02
     14.664  0.5471E+00  0.2002E+02
     14.757  0.5590E+00  0.2008E+02
     14.851  0.7190E+00  0.2014E+02
     14.945  0.9590E+00  0.2023E+02
     15.039  0.1074E+01  0.2033E+02
     15.133  0.8611E+00  0.2041E+02
     15.226  0.1025E+01  0.2051E+02
     15.320  0.8234E+00  0.2059E+02
     15.414  0.5195E+00  0.2064E+02
     15.508  0.2545E+00  0.2066E+02
     15.602  0.3263E+00  0.2069E+02
     15.695  0.7931E-01  0.2070E+02
     15.789  0.2391E+00  0.2072E+02
     15.883  0.2953E+00  0.2075E+02
     15.977  0.2173E+00  0.2077E+02
     16.070  0.3684E+00  0.2080E+02
     16.164  0.2642E+00  0.2083E+02
     16.258  0.1812E+00  0.2085E+02
     16.352  0.2513E+00  0.2087E+02
     16.446  0.2771E+00  0.2090E+02
     16.539  0.2526E+00  0.2092E+02
     16.633  0.1457E+00  0.2093E+02
     16.727  0.9207E-01  0.2094E+02
     16.821  0.1202E+00  0.2095E+02
     16.915  0.9097E-01  0.2096E+02
     17.008  0.1155E+00  0.2097E+02
     17.102  0.1669E+00  0.2099E+02
     17.196  0.9650E-01  0.2100E+02
     17.290  0.3970E-01  0.2100E+02
     17.383 -0.1508E-02  0.2100E+02
     17.477 -0.2690E-05  0.2100E+02
     17.571 -0.1371E-11  0.2100E+02
     17.665  0.0000E+00  0.2100E+02
     17.759  0.0000E+00  0.2100E+02
     17.852  0.0000E+00  0.2100E+02
     17.946  0.0000E+00  0.2100E+02
     18.040  0.0000E+00  0.2100E+02
     18.134  0.0000E+00  0.2100E+02
     18.227  0.0000E+00  0.2100E+02
     18.321  0.0000E+00  0.2100E+02
     18.415  0.0000E+00  0.2100E+02
     18.509  0.0000E+00  0.2100E+02
