   2   2   0   0
  0.2779610E+02  0.4283936E-09  0.4283936E-09  0.4283936E-09  0.5000000E-15
  1.000000000000000E-004
  CAR 
 unknown system                          
     43.28760762    -10.62227822  301      2.96498879      1.00000000
    -10.622  0.0000E+00  0.0000E+00
    -10.443  0.0000E+00  0.0000E+00
    -10.263  0.0000E+00  0.0000E+00
    -10.083  0.0000E+00  0.0000E+00
     -9.903  0.0000E+00  0.0000E+00
     -9.724  0.0000E+00  0.0000E+00
     -9.544  0.0000E+00  0.0000E+00
     -9.364  0.0000E+00  0.0000E+00
     -9.185  0.0000E+00  0.0000E+00
     -9.005  0.0000E+00  0.0000E+00
     -8.825  0.0000E+00  0.0000E+00
     -8.646 -0.9560E-39 -0.1718E-39
     -8.466 -0.5855E-15 -0.1052E-15
     -8.286 -0.1466E-02 -0.2634E-03
     -8.106  0.1110E+01  0.1992E+00
     -7.927  0.9006E+00  0.3610E+00
     -7.747  0.5836E+00  0.4659E+00
     -7.567  0.5051E+00  0.5567E+00
     -7.388  0.4563E+00  0.6387E+00
     -7.208  0.3932E+00  0.7093E+00
     -7.028  0.4132E+00  0.7836E+00
     -6.849  0.4525E+00  0.8649E+00
     -6.669  0.1211E+01  0.1082E+01
     -6.489  0.7790E+00  0.1222E+01
     -6.309  0.6941E+00  0.1347E+01
     -6.130  0.2150E+01  0.1733E+01
     -5.950  0.1483E+01  0.2000E+01
     -5.770 -0.7455E-04  0.2000E+01
     -5.591  0.0000E+00  0.2000E+01
     -5.411  0.0000E+00  0.2000E+01
     -5.231  0.0000E+00  0.2000E+01
     -5.052  0.0000E+00  0.2000E+01
     -4.872  0.0000E+00  0.2000E+01
     -4.692  0.0000E+00  0.2000E+01
     -4.512  0.0000E+00  0.2000E+01
     -4.333  0.0000E+00  0.2000E+01
     -4.153  0.0000E+00  0.2000E+01
     -3.973  0.0000E+00  0.2000E+01
     -3.794  0.0000E+00  0.2000E+01
     -3.614  0.0000E+00  0.2000E+01
     -3.434  0.0000E+00  0.2000E+01
     -3.255 -0.9549E-41  0.2000E+01
     -3.075 -0.3541E-16  0.2000E+01
     -2.895 -0.5211E-03  0.2000E+01
     -2.715  0.1125E+01  0.2202E+01
     -2.536  0.2847E+01  0.2714E+01
     -2.356  0.1679E+01  0.3015E+01
     -2.176  0.3609E+00  0.3080E+01
     -1.997  0.2350E+00  0.3122E+01
     -1.817  0.3259E+00  0.3181E+01
     -1.637  0.1836E+00  0.3214E+01
     -1.458  0.1421E+00  0.3240E+01
     -1.278  0.3440E+00  0.3301E+01
     -1.098 -0.1481E-01  0.3299E+01
     -0.918  0.3429E+00  0.3360E+01
     -0.739  0.1354E-01  0.3363E+01
     -0.559  0.3191E+00  0.3420E+01
     -0.379  0.1822E-01  0.3423E+01
     -0.200  0.3086E+00  0.3479E+01
     -0.020  0.4959E+00  0.3568E+01
      0.160  0.1324E+01  0.3806E+01
      0.339  0.1325E+01  0.4044E+01
      0.519  0.1941E+01  0.4393E+01
      0.699  0.1271E+01  0.4621E+01
      0.878  0.2717E+01  0.5110E+01
      1.058  0.9384E+00  0.5278E+01
      1.238  0.1016E+01  0.5461E+01
      1.418  0.9465E+00  0.5631E+01
      1.597  0.1041E+01  0.5818E+01
      1.777  0.9303E+00  0.5985E+01
      1.957  0.1663E+01  0.6284E+01
      2.136  0.1634E+01  0.6577E+01
      2.316  0.1803E+01  0.6902E+01
      2.496  0.1200E+01  0.7117E+01
      2.675  0.1908E+01  0.7460E+01
      2.855  0.1665E+01  0.7759E+01
      3.035  0.1344E+01  0.8001E+01
      3.215  0.1178E-01  0.8003E+01
      3.394  0.3174E+00  0.8060E+01
      3.574  0.3392E+00  0.8121E+01
      3.754  0.1044E+00  0.8140E+01
      3.933  0.2343E+00  0.8182E+01
      4.113  0.9339E-01  0.8198E+01
      4.293  0.3858E+00  0.8268E+01
      4.472  0.1226E+01  0.8488E+01
      4.652  0.1046E+01  0.8676E+01
      4.832  0.1764E+00  0.8708E+01
      5.012  0.5300E+00  0.8803E+01
      5.191  0.1278E+01  0.9033E+01
      5.371  0.1478E+01  0.9298E+01
      5.551  0.1349E+01  0.9541E+01
      5.730  0.1126E+01  0.9743E+01
      5.910  0.1142E+01  0.9948E+01
      6.090  0.6809E+00  0.1007E+02
      6.269  0.5023E+00  0.1016E+02
      6.449  0.4750E+00  0.1025E+02
      6.629  0.5117E+00  0.1034E+02
      6.809  0.5212E+00  0.1043E+02
      6.988  0.5855E+00  0.1054E+02
      7.168  0.7173E+00  0.1067E+02
      7.348  0.2135E+01  0.1105E+02
      7.527  0.1801E+01  0.1137E+02
      7.707  0.8829E+00  0.1153E+02
      7.887  0.3151E+01  0.1210E+02
      8.066  0.2392E+01  0.1253E+02
      8.246  0.2410E+01  0.1296E+02
      8.426  0.2011E+01  0.1332E+02
      8.606  0.1360E+01  0.1357E+02
      8.785  0.1254E+01  0.1379E+02
      8.965  0.7895E+00  0.1393E+02
      9.145  0.7510E+00  0.1407E+02
      9.324  0.4715E+00  0.1415E+02
      9.504  0.4184E+00  0.1423E+02
      9.684  0.1013E+01  0.1441E+02
      9.863  0.1025E+01  0.1460E+02
     10.043  0.1497E+01  0.1486E+02
     10.223  0.1204E+01  0.1508E+02
     10.403  0.7605E+00  0.1522E+02
     10.582  0.7977E+00  0.1536E+02
     10.762  0.1002E+01  0.1554E+02
     10.942  0.1261E+01  0.1577E+02
     11.121  0.1244E+01  0.1599E+02
     11.301  0.1285E+01  0.1622E+02
     11.481  0.1363E+01  0.1647E+02
     11.660  0.9644E+00  0.1664E+02
     11.840  0.2492E+01  0.1709E+02
     12.020  0.2520E+01  0.1754E+02
     12.200  0.2092E+01  0.1792E+02
     12.379  0.1723E+01  0.1823E+02
     12.559  0.1475E+01  0.1849E+02
     12.739  0.2235E+01  0.1889E+02
     12.918  0.2067E+01  0.1926E+02
     13.098  0.8744E+00  0.1942E+02
     13.278  0.1291E+01  0.1965E+02
     13.457  0.7526E+00  0.1979E+02
     13.637  0.1761E+01  0.2010E+02
     13.817  0.2194E+01  0.2050E+02
     13.997  0.2393E+01  0.2093E+02
     14.176  0.1914E+01  0.2127E+02
     14.356  0.9242E+00  0.2144E+02
     14.536  0.1015E+01  0.2162E+02
     14.715  0.1541E+01  0.2190E+02
     14.895  0.1378E+01  0.2215E+02
     15.075  0.3711E+01  0.2281E+02
     15.254  0.3344E+01  0.2341E+02
     15.434  0.3184E+01  0.2399E+02
     15.614  0.2810E+01  0.2449E+02
     15.794  0.1861E+01  0.2483E+02
     15.973  0.1482E+01  0.2509E+02
     16.153  0.1624E+01  0.2538E+02
     16.333  0.1873E+01  0.2572E+02
     16.512  0.7209E+00  0.2585E+02
     16.692  0.1253E+01  0.2608E+02
     16.872  0.6103E+00  0.2618E+02
     17.051  0.9889E+00  0.2636E+02
     17.231  0.1325E+01  0.2660E+02
     17.411  0.1473E+01  0.2687E+02
     17.591  0.1168E+01  0.2708E+02
     17.770  0.1215E+01  0.2729E+02
     17.950  0.1387E+01  0.2754E+02
     18.130  0.1784E+01  0.2786E+02
     18.309  0.1520E+01  0.2814E+02
     18.489  0.4966E+00  0.2823E+02
     18.669  0.1441E+01  0.2848E+02
     18.848  0.2004E+01  0.2884E+02
     19.028  0.2063E+01  0.2922E+02
     19.208  0.1920E+01  0.2956E+02
     19.388  0.2252E+01  0.2997E+02
     19.567  0.2463E+01  0.3041E+02
     19.747  0.1752E+01  0.3072E+02
     19.927  0.2219E+01  0.3112E+02
     20.106  0.2503E+01  0.3157E+02
     20.286  0.1582E+01  0.3186E+02
     20.466  0.2642E+01  0.3233E+02
     20.645  0.2169E+01  0.3272E+02
     20.825  0.1147E+01  0.3293E+02
     21.005  0.2318E+01  0.3334E+02
     21.185  0.1152E+01  0.3355E+02
     21.364  0.7270E+00  0.3368E+02
     21.544  0.1604E+01  0.3397E+02
     21.724  0.1757E+01  0.3428E+02
     21.903  0.2367E+01  0.3471E+02
     22.083  0.2646E+01  0.3518E+02
     22.263  0.2368E+01  0.3561E+02
     22.442  0.2012E+01  0.3597E+02
     22.622  0.1901E+01  0.3631E+02
     22.802  0.1577E+01  0.3660E+02
     22.982  0.1947E+01  0.3695E+02
     23.161  0.1747E+01  0.3726E+02
     23.341  0.2212E+01  0.3766E+02
     23.521  0.1237E+01  0.3788E+02
     23.700  0.1565E+01  0.3816E+02
     23.880  0.1895E+01  0.3850E+02
     24.060  0.1403E+01  0.3875E+02
     24.239  0.1301E+01  0.3899E+02
     24.419  0.2555E+01  0.3945E+02
     24.599  0.2445E+01  0.3989E+02
     24.779  0.1663E+01  0.4019E+02
     24.958  0.1188E+01  0.4040E+02
     25.138  0.1283E+01  0.4063E+02
     25.318  0.2202E+01  0.4102E+02
     25.497  0.2009E+01  0.4139E+02
     25.677  0.2274E+01  0.4179E+02
     25.857  0.3166E+01  0.4236E+02
     26.036  0.2381E+01  0.4279E+02
     26.216  0.2998E+01  0.4333E+02
     26.396  0.3032E+01  0.4387E+02
     26.576  0.3331E+01  0.4447E+02
     26.755  0.1957E+01  0.4483E+02
     26.935  0.1425E+01  0.4508E+02
     27.115  0.1243E+01  0.4530E+02
     27.294  0.1402E+01  0.4556E+02
     27.474  0.1312E+01  0.4579E+02
     27.654  0.1288E+01  0.4602E+02
     27.833  0.1385E+01  0.4627E+02
     28.013  0.1506E+01  0.4654E+02
     28.193  0.1322E+01  0.4678E+02
     28.373  0.1456E+01  0.4704E+02
     28.552  0.9616E+00  0.4722E+02
     28.732  0.9948E+00  0.4739E+02
     28.912  0.8128E+00  0.4754E+02
     29.091  0.9899E+00  0.4772E+02
     29.271  0.6140E+00  0.4783E+02
     29.451  0.1746E+01  0.4814E+02
     29.630  0.1320E+01  0.4838E+02
     29.810  0.9995E+00  0.4856E+02
     29.990  0.1176E+01  0.4877E+02
     30.170  0.1648E+01  0.4907E+02
     30.349  0.1310E+01  0.4930E+02
     30.529  0.1274E+01  0.4953E+02
     30.709  0.1043E+01  0.4972E+02
     30.888  0.7037E+00  0.4984E+02
     31.068  0.1490E+01  0.5011E+02
     31.248  0.1552E+01  0.5039E+02
     31.427  0.6950E+00  0.5052E+02
     31.607  0.7868E+00  0.5066E+02
     31.787  0.9789E+00  0.5083E+02
     31.967  0.7827E+00  0.5097E+02
     32.146  0.1242E+01  0.5120E+02
     32.326  0.9522E+00  0.5137E+02
     32.506  0.9258E+00  0.5153E+02
     32.685  0.5180E+00  0.5163E+02
     32.865  0.7154E+00  0.5176E+02
     33.045  0.1547E+01  0.5203E+02
     33.224  0.1021E+01  0.5222E+02
     33.404  0.9124E+00  0.5238E+02
     33.584  0.8127E+00  0.5253E+02
     33.764  0.1199E+01  0.5274E+02
     33.943  0.8592E+00  0.5290E+02
     34.123  0.8102E+00  0.5304E+02
     34.303  0.6974E+00  0.5317E+02
     34.482  0.7573E+00  0.5330E+02
     34.662  0.7534E+00  0.5344E+02
     34.842  0.7937E+00  0.5358E+02
     35.021  0.9814E+00  0.5376E+02
     35.201  0.1267E+01  0.5399E+02
     35.381  0.1017E+01  0.5417E+02
     35.561  0.8770E+00  0.5433E+02
     35.740  0.5275E+00  0.5442E+02
     35.920  0.7739E+00  0.5456E+02
     36.100  0.4385E+00  0.5464E+02
     36.279  0.2282E+00  0.5468E+02
     36.459  0.1061E+00  0.5470E+02
     36.639  0.2367E+00  0.5474E+02
     36.818  0.1769E+00  0.5477E+02
     36.998  0.2021E+00  0.5481E+02
     37.178  0.3485E+00  0.5487E+02
     37.358  0.1875E+00  0.5491E+02
     37.537  0.3941E+00  0.5498E+02
     37.717  0.4264E+00  0.5505E+02
     37.897  0.6099E+00  0.5516E+02
     38.076  0.6787E+00  0.5529E+02
     38.256  0.1102E+01  0.5548E+02
     38.436  0.6783E+00  0.5561E+02
     38.615  0.3584E+00  0.5567E+02
     38.795  0.1671E+00  0.5570E+02
     38.975  0.2401E+00  0.5574E+02
     39.155  0.9750E-01  0.5576E+02
     39.334  0.1304E+00  0.5578E+02
     39.514  0.5654E-01  0.5579E+02
     39.694  0.8835E-01  0.5581E+02
     39.873  0.9938E-01  0.5583E+02
     40.053  0.6419E-01  0.5584E+02
     40.233  0.1148E+00  0.5586E+02
     40.412  0.1438E+00  0.5589E+02
     40.592  0.2762E+00  0.5594E+02
     40.772  0.2419E+00  0.5598E+02
     40.952  0.1161E+00  0.5600E+02
     41.131 -0.1991E-03  0.5600E+02
     41.311  0.0000E+00  0.5600E+02
     41.491  0.0000E+00  0.5600E+02
     41.670  0.0000E+00  0.5600E+02
     41.850  0.0000E+00  0.5600E+02
     42.030  0.0000E+00  0.5600E+02
     42.209  0.0000E+00  0.5600E+02
     42.389  0.0000E+00  0.5600E+02
     42.569  0.0000E+00  0.5600E+02
     42.749  0.0000E+00  0.5600E+02
     42.928  0.0000E+00  0.5600E+02
     43.108  0.0000E+00  0.5600E+02
     43.288  0.0000E+00  0.5600E+02
