   2   2   0   0
  0.2779610E+02  0.4283936E-09  0.4283936E-09  0.4283936E-09  0.5000000E-15
  1.000000000000000E-004
  CAR 
 unknown system                          
     20.77157750     -9.68722805  301      2.97498333      1.00000000
     -9.687  0.0000E+00  0.0000E+00
     -9.586  0.0000E+00  0.0000E+00
     -9.484  0.0000E+00  0.0000E+00
     -9.383  0.0000E+00  0.0000E+00
     -9.281  0.0000E+00  0.0000E+00
     -9.180  0.0000E+00  0.0000E+00
     -9.078  0.0000E+00  0.0000E+00
     -8.977  0.0000E+00  0.0000E+00
     -8.875  0.0000E+00  0.0000E+00
     -8.773 -0.3692E-38 -0.3749E-39
     -8.672 -0.2065E-23 -0.2097E-24
     -8.570 -0.2797E-12 -0.2840E-13
     -8.469 -0.8943E-05 -0.9080E-06
     -8.367 -0.3942E-01 -0.4003E-02
     -8.266  0.1388E+01  0.1370E+00
     -8.164  0.1342E+01  0.2732E+00
     -8.063  0.8280E+00  0.3572E+00
     -7.961  0.6771E+00  0.4260E+00
     -7.860  0.5936E+00  0.4863E+00
     -7.758  0.5407E+00  0.5412E+00
     -7.657  0.5056E+00  0.5925E+00
     -7.555  0.4822E+00  0.6414E+00
     -7.454  0.4680E+00  0.6890E+00
     -7.352  0.4631E+00  0.7360E+00
     -7.251  0.4685E+00  0.7836E+00
     -7.149  0.4885E+00  0.8331E+00
     -7.047  0.5328E+00  0.8872E+00
     -6.946  0.1423E+01  0.1032E+01
     -6.844  0.1053E+01  0.1139E+01
     -6.743  0.8040E+00  0.1220E+01
     -6.641  0.7996E+00  0.1301E+01
     -6.540  0.9009E+00  0.1393E+01
     -6.438  0.2315E+01  0.1628E+01
     -6.337  0.3757E+01  0.2009E+01
     -6.235 -0.9304E-01  0.2000E+01
     -6.134 -0.4644E-04  0.2000E+01
     -6.032 -0.3995E-11  0.2000E+01
     -5.931  0.0000E+00  0.2000E+01
     -5.829  0.0000E+00  0.2000E+01
     -5.728  0.0000E+00  0.2000E+01
     -5.626  0.0000E+00  0.2000E+01
     -5.525  0.0000E+00  0.2000E+01
     -5.423  0.0000E+00  0.2000E+01
     -5.321  0.0000E+00  0.2000E+01
     -5.220  0.0000E+00  0.2000E+01
     -5.118  0.0000E+00  0.2000E+01
     -5.017  0.0000E+00  0.2000E+01
     -4.915  0.0000E+00  0.2000E+01
     -4.814  0.0000E+00  0.2000E+01
     -4.712  0.0000E+00  0.2000E+01
     -4.611  0.0000E+00  0.2000E+01
     -4.509  0.0000E+00  0.2000E+01
     -4.408  0.0000E+00  0.2000E+01
     -4.306  0.0000E+00  0.2000E+01
     -4.205  0.0000E+00  0.2000E+01
     -4.103  0.0000E+00  0.2000E+01
     -4.002  0.0000E+00  0.2000E+01
     -3.900  0.0000E+00  0.2000E+01
     -3.799  0.0000E+00  0.2000E+01
     -3.697  0.0000E+00  0.2000E+01
     -3.595  0.0000E+00  0.2000E+01
     -3.494  0.0000E+00  0.2000E+01
     -3.392  0.0000E+00  0.2000E+01
     -3.291  0.0000E+00  0.2000E+01
     -3.189 -0.4007E-42  0.2000E+01
     -3.088 -0.1588E-26  0.2000E+01
     -2.986 -0.1527E-14  0.2000E+01
     -2.885 -0.3537E-06  0.2000E+01
     -2.783 -0.1515E-01  0.1998E+01
     -2.682  0.8360E+00  0.2083E+01
     -2.580  0.3127E+01  0.2401E+01
     -2.479  0.4114E+01  0.2819E+01
     -2.377  0.1713E+01  0.2992E+01
     -2.276  0.3916E+00  0.3032E+01
     -2.174  0.3529E+00  0.3068E+01
     -2.073  0.3082E+00  0.3099E+01
     -1.971  0.2786E+00  0.3128E+01
     -1.869  0.2588E+00  0.3154E+01
     -1.768  0.2470E+00  0.3179E+01
     -1.666  0.2412E+00  0.3203E+01
     -1.565  0.2368E+00  0.3228E+01
     -1.463  0.2282E+00  0.3251E+01
     -1.362  0.2093E+00  0.3272E+01
     -1.260  0.1840E+00  0.3291E+01
     -1.159  0.1750E+00  0.3308E+01
     -1.057  0.1996E+00  0.3329E+01
     -0.956  0.2265E+00  0.3352E+01
     -0.854  0.2005E+00  0.3372E+01
     -0.753  0.1396E+00  0.3386E+01
     -0.651  0.1515E+00  0.3402E+01
     -0.550  0.2210E+00  0.3424E+01
     -0.448  0.2010E+00  0.3444E+01
     -0.347  0.1118E+00  0.3456E+01
     -0.245  0.7629E+00  0.3533E+01
     -0.143  0.5244E+00  0.3586E+01
     -0.042  0.1211E+01  0.3709E+01
      0.060  0.1149E+01  0.3826E+01
      0.161  0.1687E+01  0.3997E+01
      0.263  0.1765E+01  0.4177E+01
      0.364  0.1793E+01  0.4359E+01
      0.466  0.1462E+01  0.4507E+01
      0.567  0.1551E+01  0.4665E+01
      0.669  0.2541E+01  0.4922E+01
      0.770  0.1994E+01  0.5125E+01
      0.872  0.1061E+01  0.5233E+01
      0.973  0.9350E+00  0.5328E+01
      1.075  0.9127E+00  0.5420E+01
      1.176  0.1030E+01  0.5525E+01
      1.278  0.9468E+00  0.5621E+01
      1.379  0.9263E+00  0.5715E+01
      1.481  0.9397E+00  0.5810E+01
      1.583  0.9325E+00  0.5905E+01
      1.684  0.1008E+01  0.6007E+01
      1.786  0.1098E+01  0.6119E+01
      1.887  0.2019E+01  0.6324E+01
      1.989  0.1397E+01  0.6466E+01
      2.090  0.1994E+01  0.6668E+01
      2.192  0.1455E+01  0.6816E+01
      2.293  0.1283E+01  0.6946E+01
      2.395  0.1265E+01  0.7075E+01
      2.496  0.1336E+01  0.7210E+01
      2.598  0.1522E+01  0.7365E+01
      2.699  0.1935E+01  0.7561E+01
      2.801  0.1461E+01  0.7710E+01
      2.902  0.1494E+01  0.7861E+01
      3.004  0.1406E+01  0.8004E+01
      3.105 -0.4303E-01  0.8000E+01
      3.207  0.1421E+00  0.8014E+01
      3.309  0.3394E+00  0.8049E+01
      3.410  0.2132E+00  0.8070E+01
      3.512  0.1553E+00  0.8086E+01
      3.613  0.1780E+00  0.8104E+01
      3.715  0.2366E+00  0.8128E+01
      3.816  0.2038E+00  0.8149E+01
      3.918  0.1542E+00  0.8164E+01
      4.019  0.2088E+00  0.8186E+01
      4.121  0.2516E+00  0.8211E+01
      4.222  0.2619E+00  0.8238E+01
      4.324  0.1494E+01  0.8389E+01
      4.425  0.1051E+01  0.8496E+01
      4.527  0.1337E+01  0.8632E+01
      4.628  0.3332E+00  0.8666E+01
      4.730  0.2336E+00  0.8689E+01
      4.831  0.3640E+00  0.8726E+01
      4.933  0.1604E+01  0.8889E+01
      5.035  0.8544E+00  0.8976E+01
      5.136  0.6975E+00  0.9047E+01
      5.238  0.6839E+00  0.9116E+01
      5.339  0.1691E+01  0.9288E+01
      5.441  0.1368E+01  0.9427E+01
      5.542  0.1280E+01  0.9557E+01
      5.644  0.1361E+01  0.9695E+01
      5.745  0.1182E+01  0.9815E+01
      5.847  0.1166E+01  0.9933E+01
      5.948  0.1191E+01  0.1005E+02
      6.050  0.4859E+00  0.1010E+02
      6.151  0.4823E+00  0.1015E+02
      6.253  0.4686E+00  0.1020E+02
      6.354  0.4745E+00  0.1025E+02
      6.456  0.4810E+00  0.1030E+02
      6.557  0.4793E+00  0.1035E+02
      6.659  0.4975E+00  0.1040E+02
      6.761  0.5233E+00  0.1045E+02
      6.862  0.8750E+00  0.1054E+02
      6.964  0.2090E+01  0.1075E+02
      7.065  0.1133E+01  0.1087E+02
      7.167  0.1002E+01  0.1097E+02
      7.268  0.1009E+01  0.1107E+02
      7.370  0.4794E+01  0.1156E+02
      7.471  0.3077E+01  0.1187E+02
      7.573  0.1840E+01  0.1206E+02
      7.674  0.1428E+01  0.1220E+02
      7.776  0.1491E+01  0.1235E+02
      7.877  0.3189E+01  0.1268E+02
      7.979  0.9995E+00  0.1278E+02
      8.080  0.3679E+01  0.1315E+02
      8.182  0.1484E+01  0.1330E+02
      8.283  0.1381E+01  0.1344E+02
      8.385  0.1233E+01  0.1357E+02
      8.487  0.1267E+01  0.1370E+02
      8.588  0.7998E+00  0.1378E+02
      8.690  0.7706E+00  0.1386E+02
      8.791  0.8127E+00  0.1394E+02
      8.893  0.8466E+00  0.1402E+02
      8.994  0.6158E+00  0.1409E+02
      9.096  0.4054E+00  0.1413E+02
      9.197  0.4211E+00  0.1417E+02
      9.299  0.4168E+00  0.1421E+02
      9.400  0.6865E+00  0.1428E+02
      9.502  0.9830E+00  0.1438E+02
      9.603  0.7760E+00  0.1446E+02
      9.705  0.7353E+00  0.1454E+02
      9.806  0.7167E+00  0.1461E+02
      9.908  0.1162E+01  0.1473E+02
     10.009  0.1791E+01  0.1491E+02
     10.111  0.1695E+01  0.1508E+02
     10.213  0.1003E+01  0.1518E+02
     10.314  0.7681E+00  0.1526E+02
     10.416  0.7146E+00  0.1533E+02
     10.517  0.8762E+00  0.1542E+02
     10.619  0.8658E+00  0.1551E+02
     10.720  0.6609E+00  0.1558E+02
     10.822  0.1222E+01  0.1570E+02
     10.923  0.1104E+01  0.1581E+02
     11.025  0.1557E+01  0.1597E+02
     11.126  0.1250E+01  0.1610E+02
     11.228  0.1042E+01  0.1620E+02
     11.329  0.1079E+01  0.1631E+02
     11.431  0.1271E+01  0.1644E+02
     11.532  0.1544E+01  0.1660E+02
     11.634  0.1363E+01  0.1674E+02
     11.735  0.1688E+01  0.1691E+02
     11.837  0.2502E+01  0.1716E+02
     11.939  0.2079E+01  0.1737E+02
     12.040  0.1948E+01  0.1757E+02
     12.142  0.2770E+01  0.1785E+02
     12.243  0.1500E+01  0.1800E+02
     12.345  0.1365E+01  0.1814E+02
     12.446  0.1237E+01  0.1827E+02
     12.548  0.1431E+01  0.1841E+02
     12.649  0.1854E+01  0.1860E+02
     12.751  0.1577E+01  0.1876E+02
     12.852  0.1124E+01  0.1888E+02
     12.954  0.6590E+00  0.1894E+02
     13.055  0.4170E+00  0.1899E+02
     13.157  0.5345E+00  0.1904E+02
     13.258  0.5123E+00  0.1909E+02
     13.360  0.3734E+00  0.1913E+02
     13.461  0.6241E+00  0.1919E+02
     13.563  0.6753E+00  0.1926E+02
     13.665  0.9662E+00  0.1936E+02
     13.766  0.7608E+00  0.1944E+02
     13.868  0.8713E+00  0.1953E+02
     13.969  0.9870E+00  0.1963E+02
     14.071  0.6834E+00  0.1970E+02
     14.172  0.3719E+00  0.1973E+02
     14.274  0.4783E+00  0.1978E+02
     14.375  0.3661E+00  0.1982E+02
     14.477  0.3406E+00  0.1985E+02
     14.578  0.4057E+00  0.1989E+02
     14.680  0.3759E+00  0.1993E+02
     14.781  0.1105E+01  0.2005E+02
     14.883  0.1900E+01  0.2024E+02
     14.984  0.1191E+01  0.2036E+02
     15.086  0.1181E+01  0.2048E+02
     15.187  0.8647E+00  0.2057E+02
     15.289  0.4342E+00  0.2061E+02
     15.391  0.4575E+00  0.2066E+02
     15.492  0.2725E+00  0.2068E+02
     15.594  0.2595E+00  0.2071E+02
     15.695  0.1934E+00  0.2073E+02
     15.797  0.2109E+00  0.2075E+02
     15.898  0.2238E+00  0.2077E+02
     16.000  0.2830E+00  0.2080E+02
     16.101  0.6186E-01  0.2081E+02
     16.203  0.6145E-01  0.2082E+02
     16.304 -0.1717E-02  0.2082E+02
     16.406 -0.1011E-05  0.2082E+02
     16.507 -0.5853E-13  0.2082E+02
     16.609  0.0000E+00  0.2082E+02
     16.710  0.0000E+00  0.2082E+02
     16.812  0.0000E+00  0.2082E+02
     16.913  0.0000E+00  0.2082E+02
     17.015 -0.5262E-29  0.2082E+02
     17.117 -0.1059E-16  0.2082E+02
     17.218 -0.4649E-08  0.2082E+02
     17.320 -0.3457E-03  0.2082E+02
     17.421  0.2203E-01  0.2082E+02
     17.523  0.1794E-01  0.2082E+02
     17.624 -0.2327E-03  0.2082E+02
     17.726 -0.8752E-03  0.2082E+02
     17.827  0.3311E-01  0.2082E+02
     17.929  0.6462E-02  0.2082E+02
     18.030  0.3108E-01  0.2083E+02
     18.132  0.2609E-01  0.2083E+02
     18.233  0.2270E-01  0.2083E+02
     18.335 -0.2880E-02  0.2083E+02
     18.436  0.7497E-01  0.2084E+02
     18.538  0.1050E+00  0.2085E+02
     18.639  0.5696E-01  0.2086E+02
     18.741  0.7607E-01  0.2086E+02
     18.843  0.1282E+00  0.2088E+02
     18.944  0.1142E+00  0.2089E+02
     19.046  0.2596E-01  0.2089E+02
     19.147  0.4350E+00  0.2093E+02
     19.249  0.6170E+00  0.2100E+02
     19.350 -0.1437E-01  0.2100E+02
     19.452  0.3968E-01  0.2100E+02
     19.553 -0.1371E-02  0.2100E+02
     19.655 -0.5406E-06  0.2100E+02
     19.756 -0.2057E-13  0.2100E+02
     19.858  0.0000E+00  0.2100E+02
     19.959  0.0000E+00  0.2100E+02
     20.061  0.0000E+00  0.2100E+02
     20.162  0.0000E+00  0.2100E+02
     20.264  0.0000E+00  0.2100E+02
     20.365  0.0000E+00  0.2100E+02
     20.467  0.0000E+00  0.2100E+02
     20.569  0.0000E+00  0.2100E+02
     20.670  0.0000E+00  0.2100E+02
     20.772  0.0000E+00  0.2100E+02
