    2    2    1    1
  0.2779610E+02  0.4283936E-09  0.4283936E-09  0.4283936E-09  0.5000000E-15
  1.000000000000000E-004
  CAR 
 unknown system                          
      8    250     21
 
  0.0000000E+00  0.0000000E+00  0.0000000E+00  0.4000000E-02
    1       -8.302737   1.000000
    2       -8.302737   1.000000
    3        2.641356   1.000000
    4        2.641356   1.000000
    5        2.940434   0.956684
    6        2.940434   0.956684
    7        2.940435   0.956683
    8        2.940435   0.956683
    9        3.200553  -0.000000
   10        3.200553  -0.000000
   11        6.869849   0.000000
   12        6.869849   0.000000
   13        7.330789   0.000000
   14        7.330789   0.000000
   15        7.330789   0.000000
   16        7.330789   0.000000
   17       10.788068   0.000000
   18       10.788068   0.000000
   19       12.839390   0.000000
   20       12.839390   0.000000
   21       12.839390   0.000000
 
  0.1020408E-01  0.0000000E+00  0.1020408E-01  0.4000000E-02
    1       -8.301482   1.000000
    2       -8.301482   1.000000
    3        2.625255   1.000000
    4        2.625255   1.000000
    5        2.893395   1.021604
    6        2.893395   1.021604
    7        2.936286   0.983079
    8        2.936286   0.983079
    9        3.259995  -0.000000
   10        3.259995  -0.000000
   11        6.871934   0.000000
   12        6.871934   0.000000
   13        7.328233   0.000000
   14        7.328233   0.000000
   15        7.335841   0.000000
   16        7.335841   0.000000
   17       10.797497   0.000000
   18       10.797497   0.000000
   19       12.794790   0.000000
   20       12.805784   0.000000
   21       12.842775   0.000000
 
  0.2040816E-01  0.0000000E+00  0.2040816E-01  0.4000000E-02
    1       -8.297699   1.000000
    2       -8.297699   1.000000
    3        2.571485   1.000000
    4        2.571485   1.000000
    5        2.817422   1.000039
    6        2.817422   1.000039
    7        2.923921   1.027193
    8        2.923921   1.027193
    9        3.378697  -0.000000
   10        3.378697  -0.000000
   11        6.877405   0.000000
   12        6.877405   0.000000
   13        7.321468   0.000000
   14        7.321468   0.000000
   15        7.350935   0.000000
   16        7.350935   0.000000
   17       10.825544   0.000000
   18       10.825544   0.000000
   19       12.684398   0.000000
   20       12.711355   0.000000
   21       12.852229   0.000000
 
  0.3061224E-01  0.0000000E+00  0.3061224E-01  0.4000000E-02
    1       -8.291390   1.000000
    2       -8.291390   1.000000
    3        2.477130   1.000000
    4        2.477130   1.000000
    5        2.758753   1.000000
    6        2.758753   1.000000
    7        2.903579   1.030701
    8        2.903579   1.030701
    9        3.513452  -0.000000
   10        3.513452  -0.000000
   11        6.883815   0.000000
   12        6.883815   0.000000
   13        7.313311   0.000000
   14        7.313311   0.000000
   15        7.375904   0.000000
   16        7.375904   0.000000
   17       10.871512   0.000000
   18       10.871516   0.000000
   19       12.535669   0.000000
   20       12.555852   0.000000
   21       12.855586   0.000000
 
  0.4081633E-01  0.0000000E+00  0.4081633E-01  0.4000000E-02
    1       -8.282563   1.000000
    2       -8.282563   1.000000
    3        2.355898   1.000000
    4        2.355898   1.000000
    5        2.714402   1.000000
    6        2.714402   1.000000
    7        2.875636   1.008337
    8        2.875636   1.008337
    9        3.653707  -0.000000
   10        3.653707  -0.000000
   11        6.886907   0.000000
   12        6.886907   0.000000
   13        7.308572   0.000000
   14        7.308572   0.000000
   15        7.410480   0.000000
   16        7.410480   0.000000
   17       10.934291   0.000000
   18       10.934303   0.000000
   19       12.828993   0.000000
   20       13.526050   0.000000
   21       13.601750   0.000000
 
  0.5102041E-01  0.0000000E+00  0.5102041E-01  0.4000000E-02
    1       -8.271227   1.000000
    2       -8.271227   1.000000
    3        2.221851   1.000000
    4        2.221851   1.000000
    5        2.673898   1.000000
    6        2.673898   1.000000
    7        2.840575   1.000480
    8        2.840575   1.000480
    9        3.796095  -0.000000
   10        3.796095  -0.000000
   11        6.881147   0.000000
   12        6.881147   0.000000
   13        7.313438   0.000000
   14        7.313438   0.000000
   15        7.454303   0.000000
   16        7.454303   0.000000
   17       11.012313   0.000000
   18       11.012313   0.000000
   19       12.865906   0.000000
   20       12.768101   0.000000
   21       14.007380   0.000000
 
  0.6122449E-01  0.0000000E+00  0.6122449E-01  0.4000000E-02
    1       -8.257391   1.000000
    2       -8.257391   1.000000
    3        2.081907   1.000000
    4        2.081907   1.000000
    5        2.632134   1.000000
    6        2.632134   1.000000
    7        2.798986   1.000004
    8        2.798986   1.000004
    9        3.939088  -0.000000
   10        3.939088  -0.000000
   11        6.861773   0.000000
   12        6.861773   0.000000
   13        7.333367   0.000000
   14        7.333367   0.000000
   15        7.506948   0.000000
   16        7.506948   0.000000
   17       11.103408   0.000000
   18       11.103410   0.000000
   19       12.016376   0.000000
   20       12.018457   0.000000
   21       12.882016   0.000000
 
  0.7142857E-01  0.0000000E+00  0.7142857E-01  0.4000000E-02
    1       -8.241077   1.000000
    2       -8.241077   1.000000
    3        1.939058   1.000000
    4        1.939058   1.000000
    5        2.587237   1.000000
    6        2.587237   1.000000
    7        2.751489   1.000000
    8        2.751489   1.000000
    9        4.081789  -0.000000
   10        4.081789  -0.000000
   11        6.827186   0.000000
   12        6.827186   0.000000
   13        7.370611   0.000000
   14        7.370611   0.000000
   15        7.567929   0.000000
   16        7.567929   0.000000
   17       11.203775   0.000000
   18       11.203777   0.000000
   19       11.842771   0.000000
   20       11.842912   0.000000
   21       12.897289   0.000000
 
  0.8163265E-01  0.0000000E+00  0.8163265E-01  0.4000000E-02
    1       -8.222290   1.000000
    2       -8.222290   1.000000
    3        1.794739   1.000000
    4        1.794740   1.000000
    5        2.538713   1.000000
    6        2.538713   1.000000
    7        2.698759   1.000000
    8        2.698759   1.000000
    9        4.223540  -0.000000
   10        4.223540  -0.000000
   11        6.779050   0.000000
   12        6.779051   0.000000
   13        7.424114   0.000000
   14        7.424114   0.000000
   15        7.636736   0.000000
   16        7.636736   0.000000
   17       11.302087   0.000000
   18       11.302115   0.000000
   19       11.684955   0.000000
   20       11.685047   0.000000
   21       12.915880   0.000000
 
  0.9183673E-01  0.0000000E+00  0.9183673E-01  0.4000000E-02
    1       -8.201055   1.000000
    2       -8.201055   1.000000
    3        1.649706   1.000000
    4        1.649706   1.000000
    5        2.486589   1.000000
    6        2.486589   1.000000
    7        2.641460   1.000000
    8        2.641460   1.000000
    9        4.363771   0.000000
   10        4.363771   0.000000
   11        6.720396   0.000000
   12        6.720396   0.000000
   13        7.491356   0.000000
   14        7.491356   0.000000
   15        7.712836   0.000000
   16        7.712836   0.000000
   17       11.340958   0.000000
   18       11.340962   0.000000
   19       11.600735   0.000000
   20       11.600858   0.000000
   21       12.946401   0.000000
 
  0.1020408E+00  0.0000000E+00  0.1020408E+00  0.4000000E-02
    1       -8.177391   1.000000
    2       -8.177391   1.000000
    3        1.504381   1.000000
    4        1.504381   1.000000
    5        2.431137   1.000000
    6        2.431137   1.000000
    7        2.580249   1.000000
    8        2.580249   1.000000
    9        4.501924   0.000000
   10        4.501924   0.000000
   11        6.654135   0.000000
   12        6.654135   0.000000
   13        7.569835   0.000000
   14        7.569835   0.000000
   15        7.795690   0.000000
   16        7.795690   0.000000
   17       11.241096   0.000000
   18       11.541766   0.000000
   19       11.669797   0.000000
   20       13.808080   0.000000
   21       14.078708   0.000000
 
  0.1122449E+00  0.0000000E+00  0.1122449E+00  0.4000000E-02
    1       -8.151325   1.000000
    2       -8.151325   1.000000
    3        1.359049   1.000000
    4        1.359049   1.000000
    5        2.372720   1.000000
    6        2.372720   1.000000
    7        2.515742   1.000000
    8        2.515742   1.000000
    9        4.637406   0.000000
   10        4.637406   0.000000
   11        6.582613   0.000000
   12        6.582613   0.000000
   13        7.657551   0.000000
   14        7.657551   0.000000
   15        7.884774   0.000000
   16        7.884774   0.000000
   17       11.092812   0.000000
   18       11.698710   0.000000
   19       11.801354   0.000000
   20       14.060249   0.000000
   21       14.130922   0.000000
 
  0.1224490E+00  0.0000000E+00  0.1224490E+00  0.4000000E-02
    1       -8.122887   1.000000
    2       -8.122887   1.000000
    3        1.213888   1.000000
    4        1.213888   1.000000
    5        2.311754   1.000000
    6        2.311754   1.000000
    7        2.448532   1.000000
    8        2.448532   1.000000
    9        4.769575   0.000000
   10        4.769575   0.000000
   11        6.507626   0.000000
   12        6.507626   0.000000
   13        7.752973   0.000000
   14        7.752973   0.000000
   15        7.979577   0.000000
   16        7.979577   0.000000
   17       10.940052   0.000000
   18       11.697577   0.000000
   19       11.952131   0.000000
   20       13.016707   0.000000
   21       13.049470   0.000000
 
  0.1326531E+00  0.0000000E+00  0.1326531E+00  0.4000000E-02
    1       -8.092105   1.000000
    2       -8.092105   1.000000
    3        1.069042   1.000000
    4        1.069042   1.000000
    5        2.248692   1.000000
    6        2.248692   1.000000
    7        2.379183   1.000000
    8        2.379183   1.000000
    9        4.897715   0.000000
   10        4.897715   0.000000
   11        6.430571   0.000000
   12        6.430571   0.000000
   13        7.854940   0.000000
   14        7.854940   0.000000
   15        8.079627   0.000000
   16        8.079627   0.000000
   17       10.791562   0.000000
   18       10.791562   0.000000
   19       12.113834   0.000000
   20       12.121918   0.000000
   21       14.207086   0.000000
 
  0.1428571E+00  0.0000000E+00  0.1428571E+00  0.4000000E-02
    1       -8.059014   1.000000
    2       -8.059014   1.000000
    3        0.924616   1.000000
    4        0.924616   1.000000
    5        2.183941   1.000000
    6        2.183941   1.000000
    7        2.308194   1.000000
    8        2.308194   1.000000
    9        5.021007   0.000000
   10        5.021007   0.000000
   11        6.352573   0.000000
   12        6.352573   0.000000
   13        7.962526   0.000000
   14        7.962526   0.000000
   15        8.184465   0.000000
   16        8.184465   0.000000
   17       10.650400   0.000000
   18       10.650400   0.000000
   19       12.282400   0.000000
   20       12.286531   0.000000
   21       13.063121   0.000000
 
  0.1530612E+00  0.0000000E+00  0.1530612E+00  0.4000000E-02
    1       -8.023653   1.000000
    2       -8.023652   1.000000
    3        0.780704   1.000000
    4        0.780704   1.000000
    5        2.117904   1.000000
    6        2.117904   1.000000
    7        2.236030   1.000000
    8        2.236030   1.000000
    9        5.138507   0.000000
   10        5.138507   0.000000
   11        6.274591   0.000000
   12        6.274591   0.000000
   13        8.074987   0.000000
   14        8.074987   0.000000
   15        8.293668   0.000000
   16        8.293668   0.000000
   17       10.518359   0.000000
   18       10.518357   0.000000
   19       12.459290   0.000000
   20       12.462038   0.000000
   21       14.528885   0.000000
 
  0.1632653E+00  0.0000000E+00  0.1632653E+00  0.4000000E-02
    1       -7.986066   1.000000
    2       -7.986066   1.000000
    3        0.637381   1.000000
    4        0.637381   1.000000
    5        2.050960   1.000000
    6        2.050960   1.000000
    7        2.163112   1.000000
    8        2.163112   1.000000
    9        5.249095   0.000000
   10        5.249095   0.000000
   11        6.197525   0.000000
   12        6.197525   0.000000
   13        8.191704   0.000000
   14        8.191704   0.000000
   15        8.406842   0.000000
   16        8.406842   0.000000
   17       10.396835   0.000000
   18       10.396830   0.000000
   19       12.639085   0.000000
   20       12.643671   0.000000
   21       14.712343   0.000000
 
  0.1734694E+00  0.0000000E+00  0.1734694E+00  0.4000000E-02
    1       -7.946302   1.000000
    2       -7.946302   1.000000
    3        0.494743   1.000000
    4        0.494743   1.000000
    5        1.983464   1.000000
    6        1.983464   1.000000
    7        2.089825   1.000000
    8        2.089825   1.000000
    9        5.351418   0.000000
   10        5.351418   0.000000
   11        6.122344   0.000000
   12        6.122344   0.000000
   13        8.312154   0.000000
   14        8.312154   0.000000
   15        8.523622   0.000000
   16        8.523623   0.000000
   17       10.287083   0.000000
   18       10.287083   0.000000
   19       12.830616   0.000000
   20       12.837750   0.000000
   21       14.770078   0.000000
 
  0.1836735E+00  0.0000000E+00  0.1836735E+00  0.4000000E-02
    1       -7.904427   1.000000
    2       -7.904427   1.000000
    3        0.352861   1.000000
    4        0.352861   1.000000
    5        1.915743   1.000000
    6        1.915743   1.000000
    7        2.016511   1.000000
    8        2.016511   1.000000
    9        5.443678   0.000000
   10        5.443678   0.000000
   11        6.050322   0.000000
   12        6.050322   0.000000
   13        8.435888   0.000000
   14        8.435887   0.000000
   15        8.643674   0.000000
   16        8.643673   0.000000
   17       10.190294   0.000000
   18       10.190294   0.000000
   19       13.009833   0.000000
   20       13.202209   0.000000
   21       13.206398   0.000000
 
  0.1938776E+00  0.0000000E+00  0.1938776E+00  0.4000000E-02
    1       -7.860496   1.000000
    2       -7.860496   1.000000
    3        0.211798   1.000000
    4        0.211798   1.000000
    5        1.848097   1.000000
    6        1.848097   1.000000
    7        1.943483   1.000000
    8        1.943483   1.000000
    9        5.523127   0.000000
   10        5.523127   0.000000
   11        5.983545   0.000000
   12        5.983545   0.000000
   13        8.562508   0.000000
   14        8.562508   0.000000
   15        8.766681   0.000000
   16        8.766681   0.000000
   17       10.107595   0.000000
   18       10.107595   0.000000
   19       13.201627   0.000000
   20       13.208676   0.000000
   21       14.771473   0.000000
 
  0.2040816E+00  0.0000000E+00  0.2040816E+00  0.4000000E-02
    1       -7.814569   1.000000
    2       -7.814569   1.000000
    3        0.071646   1.000000
    4        0.071646   1.000000
    5        1.780805   1.000000
    6        1.780805   1.000000
    7        1.871023   1.000000
    8        1.871023   1.000000
    9        5.585040   0.000000
   10        5.585040   0.000000
   11        5.926123   0.000000
   12        5.926123   0.000000
   13        8.691660   0.000000
   14        8.691660   0.000000
   15        8.892346   0.000000
   16        8.892346   0.000000
   17       10.040036   0.000000
   18       10.040036   0.000000
   19       13.334822   0.000000
   20       13.375408   0.000000
   21       14.825849   0.000000
 
  0.2142857E+00  0.0000000E+00  0.2142857E+00  0.4000000E-02
    1       -7.766724   1.000000
    2       -7.766724   1.000000
    3       -0.067519   1.000000
    4       -0.067519   1.000000
    5        1.714117   1.000000
    6        1.714117   1.000000
    7        1.799384   1.000000
    8        1.799384   1.000000
    9        5.620735   0.000000
   10        5.620735   0.000000
   11        5.886151   0.000000
   12        5.886151   0.000000
   13        8.823033   0.000000
   14        8.823033   0.000000
   15        9.020398   0.000000
   16        9.020398   0.000000
   17        9.988538   0.000000
   18        9.988538   0.000000
   19       13.337204   0.000000
   20       13.550315   0.000000
   21       13.585958   0.000000
 
  0.2244898E+00  0.0000000E+00  0.2244898E+00  0.4000000E-02
    1       -7.717038   1.000000
    2       -7.717038   1.000000
    3       -0.205579   1.000000
    4       -0.205579   1.000000
    5        1.648277   1.000000
    6        1.648277   1.000000
    7        1.728799   1.000000
    8        1.728799   1.000000
    9        5.620825   0.000000
   10        5.620825   0.000000
   11        5.872573   0.000000
   12        5.872573   0.000000
   13        8.956341   0.000000
   14        8.956340   0.000000
   15        9.150579   0.000000
   16        9.150579   0.000000
   17        9.953840   0.000000
   18        9.953840   0.000000
   19       13.384951   0.000000
   20       13.423771   0.000000
   21       13.780110   0.000000
 
  0.2346939E+00  0.0000000E+00  0.2346939E+00  0.4000000E-02
    1       -7.665608   1.000000
    2       -7.665608   1.000000
    3       -0.342442   1.000000
    4       -0.342442   1.000000
    5        1.583491   1.000000
    6        1.583491   1.000000
    7        1.659471   1.000000
    8        1.659471   1.000000
    9        5.589902   0.000000
   10        5.589902   0.000000
   11        5.880542   0.000000
   12        5.880542   0.000000
   13        9.091306   0.000000
   14        9.091306   0.000000
   15        9.282621   0.000000
   16        9.282621   0.000000
   17        9.936436   0.000000
   18        9.936436   0.000000
   19       13.454094   0.000000
   20       13.495463   0.000000
   21       15.374837   0.000000
 
  0.2448980E+00  0.0000000E+00  0.2448980E+00  0.4000000E-02
    1       -7.612540   1.000000
    2       -7.612540   1.000000
    3       -0.477993   1.000000
    4       -0.477993   1.000000
    5        1.519955   1.000000
    6        1.519955   1.000000
    7        1.591589   1.000000
    8        1.591589   1.000000
    9        5.543047   0.000000
   10        5.543047   0.000000
   11        5.894986   0.000000
   12        5.894986   0.000000
   13        9.227659   0.000000
   14        9.227659   0.000000
   15        9.416246   0.000000
   16        9.416246   0.000000
   17        9.936549   0.000000
   18        9.936549   0.000000
   19       13.495057   0.000000
   20       13.524475   0.000000
   21       15.572904   0.000000
 
  0.2551020E+00  0.0000000E+00  0.2551020E+00  0.4000000E-02
    1       -7.557940   1.000000
    2       -7.557940   1.000000
    3       -0.612104   1.000000
    4       -0.612103   1.000000
    5        1.457847   1.000000
    6        1.457847   1.000000
    7        1.525323   1.000000
    8        1.525323   1.000000
    9        5.490310   0.000000
   10        5.490310   0.000000
   11        5.906173   0.000000
   12        5.906173   0.000000
   13        9.365122   0.000000
   14        9.365122   0.000000
   15        9.551136   0.000000
   16        9.551136   0.000000
   17        9.954127   0.000000
   18        9.954127   0.000000
   19       13.912494   0.000000
   20       14.181598   0.000000
   21       15.676810   0.000000
 
  0.2653061E+00  0.0000000E+00  0.2653061E+00  0.4000000E-02
    1       -7.501940   1.000000
    2       -7.501940   1.000000
    3       -0.744629   1.000000
    4       -0.744629   1.000000
    5        1.397331   1.000000
    6        1.397331   1.000000
    7        1.460827   1.000000
    8        1.460827   1.000000
    9        5.436198   0.000000
   10        5.436198   0.000000
   11        5.910212   0.000000
   12        5.910212   0.000000
   13        9.503392   0.000000
   14        9.503392   0.000000
   15        9.686870   0.000000
   16        9.686870   0.000000
   17        9.988909   0.000000
   18        9.988909   0.000000
   19       13.596577   0.000000
   20       13.634175   0.000000
   21       14.535069   0.000000
 
  0.2755102E+00  0.0000000E+00  0.2755102E+00  0.4000000E-02
    1       -7.444677   1.000000
    2       -7.444677   1.000000
    3       -0.875433   1.000000
    4       -0.875433   1.000000
    5        1.338551   1.000000
    6        1.338551   1.000000
    7        1.398235   1.000000
    8        1.398235   1.000000
    9        5.382717   0.000000
   10        5.382717   0.000000
   11        5.905971   0.000000
   12        5.905971   0.000000
   13        9.642118   0.000000
   14        9.642117   0.000000
   15        9.822799   0.000000
   16        9.822799   0.000000
   17       10.040597   0.000000
   18       10.040597   0.000000
   19       13.654345   0.000000
   20       13.689839   0.000000
   21       14.711696   0.000000
 
  0.2857143E+00  0.0000000E+00  0.2857143E+00  0.4000000E-02
    1       -7.386301   1.000000
    2       -7.386301   1.000000
    3       -1.004306   1.000000
    4       -1.004306   1.000000
    5        1.281643   1.000000
    6        1.281643   1.000000
    7        1.337676   1.000000
    8        1.337676   1.000000
    9        5.330858   0.000000
   10        5.330858   0.000000
   11        5.893567   0.000000
   12        5.893567   0.000000
   13        9.780876   0.000000
   14        9.780876   0.000000
   15        9.957749   0.000000
   16        9.957749   0.000000
   17       10.109259   0.000000
   18       10.109257   0.000000
   19       13.714131   0.000000
   20       13.751634   0.000000
   21       14.892133   0.000000
 
  0.2959184E+00  0.0000000E+00  0.2959184E+00  0.4000000E-02
    1       -7.326984   1.000000
    2       -7.326984   1.000000
    3       -1.131067   1.000000
    4       -1.131067   1.000000
    5        1.226744   1.000000
    6        1.226744   1.000000
    7        1.279272   1.000000
    8        1.279272   1.000000
    9        5.281161   0.000000
   10        5.281161   0.000000
   11        5.873688   0.000000
   12        5.873688   0.000000
   13        9.919158   0.000000
   14        9.919157   0.000000
   15       10.089452   0.000000
   16       10.089452   0.000000
   17       10.195962   0.000000
   18       10.195962   0.000000
   19       13.775249   0.000000
   20       13.791771   0.000000
   21       15.049134   0.000000
 
  0.3061224E+00  0.0000000E+00  0.3061224E+00  0.4000000E-02
    1       -7.266919   1.000000
    2       -7.266919   1.000000
    3       -1.255511   1.000000
    4       -1.255511   1.000000
    5        1.173961   1.000000
    6        1.173961   1.000000
    7        1.223122   1.000000
    8        1.223122   1.000000
    9        5.233940   0.000000
   10        5.233940   0.000000
   11        5.847306   0.000000
   12        5.847306   0.000000
   13       10.056347   0.000000
   14       10.056346   0.000000
   15       10.214944   0.000000
   16       10.214944   0.000000
   17       10.302428   0.000000
   18       10.302427   0.000000
   19       13.838188   0.000000
   20       13.846523   0.000000
   21       15.199277   0.000000
 
  0.3163265E+00  0.0000000E+00  0.3163265E+00  0.4000000E-02
    1       -7.206318   1.000000
    2       -7.206318   1.000000
    3       -1.377406   1.000000
    4       -1.377406   1.000000
    5        1.123396   1.000000
    6        1.123396   1.000000
    7        1.169322   1.000000
    8        1.169322   1.000000
    9        5.189393   0.000000
   10        5.189393   0.000000
   11        5.815518   0.000000
   12        5.815518   0.000000
   13       10.191822   0.000000
   14       10.191821   0.000000
   15       10.335460   0.000000
   16       10.335460   0.000000
   17       10.426109   0.000000
   18       10.426109   0.000000
   19       13.902636   0.000000
   20       13.907985   0.000000
   21       15.337447   0.000000
 
  0.3265306E+00  0.0000000E+00  0.3265306E+00  0.4000000E-02
    1       -7.145416   1.000000
    2       -7.145416   1.000000
    3       -1.496483   1.000000
    4       -1.496483   1.000000
    5        1.075145   1.000000
    6        1.075145   1.000000
    7        1.117955   1.000000
    8        1.117955   1.000000
    9        5.147648   0.000000
   10        5.147648   0.000000
   11        5.779438   0.000000
   12        5.779438   0.000000
   13       10.325213   0.000000
   14       10.325213   0.000000
   15       10.456947   0.000000
   16       10.456947   0.000000
   17       10.559438   0.000000
   18       10.559438   0.000000
   19       13.968461   0.000000
   20       13.972749   0.000000
   21       15.460262   0.000000
 
  0.3367347E+00  0.0000000E+00  0.3367347E+00  0.4000000E-02
    1       -7.084478   1.000000
    2       -7.084478   1.000000
    3       -1.612453   1.000000
    4       -1.612453   1.000000
    5        1.029295   1.000000
    6        1.029295   1.000000
    7        1.069103   1.000000
    8        1.069103   1.000000
    9        5.108785   0.000000
   10        5.108785   0.000000
   11        5.740140   0.000000
   12        5.740140   0.000000
   13       10.456685   0.000000
   14       10.456685   0.000000
   15       10.582760   0.000000
   16       10.582760   0.000000
   17       10.696878   0.000000
   18       10.696878   0.000000
   19       14.035485   0.000000
   20       14.039294   0.000000
   21       15.566306   0.000000
 
  0.3469388E+00  0.0000000E+00  0.3469388E+00  0.4000000E-02
    1       -7.023797   1.000000
    2       -7.023797   1.000000
    3       -1.724998   1.000000
    4       -1.724998   1.000000
    5        0.985926   1.000000
    6        0.985926   1.000000
    7        1.022837   1.000000
    8        1.022837   1.000000
    9        5.072852   0.000000
   10        5.072852   0.000000
   11        5.698626   0.000000
   12        5.698626   0.000000
   13       10.586882   0.000000
   14       10.586882   0.000000
   15       10.712785   0.000000
   16       10.712785   0.000000
   17       10.835833   0.000000
   18       10.835833   0.000000
   19       14.103503   0.000000
   20       14.107163   0.000000
   21       15.655910   0.000000
 
  0.3571429E+00  0.0000000E+00  0.3571429E+00  0.4000000E-02
    1       -6.963711   1.000000
    2       -6.963711   1.000000
    3       -1.833774   1.000000
    4       -1.833774   1.000000
    5        0.945104   1.000000
    6        0.945104   1.000000
    7        0.979215   1.000000
    8        0.979215   1.000000
    9        5.039865   0.000000
   10        5.039865   0.000000
   11        5.655808   0.000000
   12        5.655808   0.000000
   13       10.716458   0.000000
   14       10.716458   0.000000
   15       10.845523   0.000000
   16       10.845523   0.000000
   17       10.974989   0.000000
   18       10.974989   0.000000
   19       14.172269   0.000000
   20       14.176012   0.000000
   21       15.727618   0.000000
 
  0.3673469E+00  0.0000000E+00  0.3673469E+00  0.4000000E-02
    1       -6.904563   1.000000
    2       -6.904563   1.000000
    3       -1.938387   1.000000
    4       -1.938387   1.000000
    5        0.906908   1.000000
    6        0.906908   1.000000
    7        0.938308   1.000000
    8        0.938308   1.000000
    9        5.009828   0.000000
   10        5.009828   0.000000
   11        5.612512   0.000000
   12        5.612512   0.000000
   13       10.845695   0.000000
   14       10.845695   0.000000
   15       10.979311   0.000000
   16       10.979311   0.000000
   17       11.113489   0.000000
   18       11.113489   0.000000
   19       14.241485   0.000000
   20       14.245385   0.000000
   21       15.777636   0.000000
 
  0.3775510E+00  0.0000000E+00  0.3775510E+00  0.4000000E-02
    1       -6.846743   1.000000
    2       -6.846743   1.000000
    3       -2.038415   1.000000
    4       -2.038415   1.000000
    5        0.871396   1.000000
    6        0.871396   1.000000
    7        0.900169   1.000000
    8        0.900169   1.000000
    9        4.982717   0.000000
   10        4.982717   0.000000
   11        5.569480   0.000000
   12        5.569480   0.000000
   13       10.974401   0.000000
   14       10.974401   0.000000
   15       11.112663   0.000000
   16       11.112663   0.000000
   17       11.250586   0.000000
   18       11.250586   0.000000
   19       14.310896   0.000000
   20       14.315044   0.000000
   21       15.814704   0.000000
 
  0.3877551E+00  0.0000000E+00  0.3877551E+00  0.4000000E-02
    1       -6.790693   1.000000
    2       -6.790693   1.000000
    3       -2.133411   1.000000
    4       -2.133411   1.000000
    5        0.838611   1.000000
    6        0.838611   1.000000
    7        0.864834   1.000000
    8        0.864834   1.000000
    9        4.958491   0.000000
   10        4.958491   0.000000
   11        5.527360   0.000000
   12        5.527360   0.000000
   13       11.101970   0.000000
   14       11.101970   0.000000
   15       11.244240   0.000000
   16       11.244241   0.000000
   17       11.385504   0.000000
   18       11.385503   0.000000
   19       14.380845   0.000000
   20       14.384662   0.000000
   21       17.418119   0.000000
 
  0.3979592E+00  0.0000000E+00  0.3979592E+00  0.4000000E-02
    1       -6.736873   1.000000
    2       -6.736873   1.000000
    3       -2.222876   1.000000
    4       -2.222876   1.000000
    5        0.808607   1.000000
    6        0.808607   1.000000
    7        0.832353   1.000000