    2    2    1    1
  0.2779610E+02  0.4283936E-09  0.4283936E-09  0.4283936E-09  0.5000000E-15
  1.000000000000000E-004
  CAR 
 unknown system                          
      8    100     56
 
  0.0000000E+00  0.0000000E+00  0.0000000E+00  0.1000000E-01
    1       -8.171829   1.000000
    2       -8.171829   1.000000
    3        2.653246   1.000000
    4        2.653246   1.000000
    5        2.927261   0.983392
    6        2.927261   0.983392
    7        2.927262   0.983383
    8        2.927262   0.983383
    9        3.248700  -0.000000
   10        3.248700  -0.000000
   11        7.247732   0.000000
   12        7.247732   0.000000
   13        7.745727   0.000000
   14        7.745727   0.000000
   15        7.745727   0.000000
   16        7.745728   0.000000
   17       10.742811   0.000000
   18       10.742811   0.000000
   19       12.860899   0.000000
   20       12.860899   0.000000
   21       12.860899   0.000000
   22       12.860899   0.000000
   23       13.610934   0.000000
   24       13.610934   0.000000
   25       13.641622   0.000000
   26       13.641622   0.000000
   27       13.641622   0.000000
   28       13.641622   0.000000
   29       16.184312   0.000000
   30       16.184312   0.000000
   31       24.410839   0.000000
   32       24.410839   0.000000
   33       24.410842   0.000000
   34       24.410842   0.000000
   35       24.561070   0.000000
   36       24.561070   0.000000
   37       25.773576   0.000000
   38       25.773576   0.000000
   39       25.794175   0.000000
   40       25.794175   0.000000
   41       25.794177   0.000000
   42       25.794177   0.000000
   43       25.887736   0.000000
   44       25.887736   0.000000
   45       25.887765   0.000000
   46       25.887765   0.000000
   47       25.887765   0.000000
   48       25.887765   0.000000
   49       26.232827   0.000000
   50       26.232827   0.000000
   51       26.232828   0.000000
   52       26.232828   0.000000
   53       33.400850   0.000000
   54       33.470330   0.000000
   55       33.531751   0.000000
   56       33.809501   0.000000
 
  0.2631579E-01  0.0000000E+00  0.2631579E-01  0.1000000E-01
    1       -8.162984   1.000000
    2       -8.162984   1.000000
    3        2.539524   1.000000
    4        2.539524   1.000000
    5        2.784281   1.000002
    6        2.784282   1.000002
    7        2.903625   1.035386
    8        2.903625   1.035386
    9        3.483327  -0.000000
   10        3.483327  -0.000000
   11        7.254200   0.000000
   12        7.254200   0.000000
   13        7.724216   0.000000
   14        7.724216   0.000000
   15        7.775738   0.000000
   16        7.775738   0.000000
   17       10.813682   0.000000
   18       10.813682   0.000000
   19       12.617557   0.000000
   20       12.617557   0.000000
   21       12.870217   0.000000
   22       12.870217   0.000000
   23       13.640309   0.000000
   24       13.640309   0.000000
   25       13.659978   0.000000
   26       13.659978   0.000000
   27       13.833782   0.000000
   28       13.833782   0.000000
   29       16.278888   0.000000
   30       16.278888   0.000000
   31       24.168862   0.000000
   32       24.168960   0.000000
   33       24.280605   0.000000
   34       24.280848   0.000000
   35       24.478218   0.000000
   36       24.480109   0.000000
   37       25.178708   0.000000
   38       25.178709   0.000000
   39       25.560180   0.000000
   40       25.560270   0.000000
   41       25.701596   0.000000
   42       25.701690   0.000000
   43       25.850795   0.000000
   44       25.850938   0.000000
   45       26.168922   0.000000
   46       26.170176   0.000000
   47       26.449060   0.000000
   48       26.452297   0.000000
   49       26.494036   0.000000
   50       26.494278   0.000000
   51       26.535145   0.000000
   52       26.535693   0.000000
   53       33.513309   0.000000
   54       33.647774   0.000000
   55       33.657134   0.000000
   56       34.630748   0.000000
 
  0.5263158E-01  0.0000000E+00  0.5263158E-01  0.1000000E-01
    1       -8.136448   1.000000
    2       -8.136448   1.000000
    3        2.224306   1.000000
    4        2.224306   1.000000
    5        2.681105   1.000000
    6        2.681105   1.000000
    7        2.835240   1.000695
    8        2.835240   1.000695
    9        3.836692  -0.000000
   10        3.836692  -0.000000
   11        7.238687   0.000000
   12        7.238687   0.000000
   13        7.704596   0.000000
   14        7.704596   0.000000
   15        7.863966   0.000000
   16        7.863966   0.000000
   17       11.012673   0.000000
   18       11.012673   0.000000
   19       12.176317   0.000000
   20       12.176317   0.000000
   21       12.893018   0.000000
   22       12.893018   0.000000
   23       13.703733   0.000000
   24       13.703733   0.000000
   25       13.724783   0.000000
   26       13.724783   0.000000
   27       14.146734   0.000000
   28       14.146734   0.000000
   29       16.559260   0.000000
   30       16.559260   0.000000
   31       23.672822   0.000000
   32       23.672994   0.000000
   33       23.843055   0.000000
   34       23.843662   0.000000
   35       24.323090   0.000000
   36       24.326098   0.000000
   37       24.558974   0.000000
   38       24.559427   0.000000
   39       25.338247   0.000000
   40       25.357572   0.000000
   41       25.686129   0.000000
   42       25.715351   0.000000
   43       25.952736   0.000000
   44       26.005872   0.000000
   45       26.569672   0.000000
   46       26.908552   0.000000
   47       27.054190   0.000000
   48       27.107407   0.000000
   49       30.451223   0.000000
   50       31.409844   0.000000
   51       32.487331   0.000000
   52       33.202341   0.000000
   53       33.348059   0.000000
   54       33.350526   0.000000
   55       35.233236   0.000000
   56       35.900369   0.000000
 
  0.7894737E-01  0.0000000E+00  0.7894737E-01  0.1000000E-01
    1       -8.092390   1.000000
    2       -8.092390   1.000000
    3        1.860356   1.000000
    4        1.860356   1.000000
    5        2.578411   1.000000
    6        2.578411   1.000000
    7        2.728546   1.000000
    8        2.728546   1.000000
    9        4.196854  -0.000000
   10        4.196854  -0.000000
   11        7.133961   0.000000
   12        7.133961   0.000000
   13        7.774993   0.000000
   14        7.774993   0.000000
   15        8.005466   0.000000
   16        8.005466   0.000000
   17       11.299377   0.000000
   18       11.299377   0.000000
   19       11.722627   0.000000
   20       11.722627   0.000000
   21       12.930972   0.000000
   22       12.930972   0.000000
   23       13.808432   0.000000
   24       13.808433   0.000000
   25       13.832536   0.000000
   26       13.832537   0.000000
   27       14.422735   0.000000
   28       14.422735   0.000000
   29       17.006306   0.000000
   30       17.006306   0.000000
   31       23.095559   0.000000
   32       23.096335   0.000000
   33       23.282111   0.000000
   34       23.282450   0.000000
   35       23.850367   0.000000
   36       23.850442   0.000000
   37       24.144041   0.000000
   38       24.145835   0.000000
   39       25.184358   0.000000
   40       25.225997   0.000000
   41       25.712263   0.000000
   42       25.732278   0.000000
   43       25.980279   0.000000
   44       26.076141   0.000000
   45       26.904487   0.000000
   46       27.444845   0.000000
   47       27.594572   0.000000
   48       27.618827   0.000000
   49       31.175365   0.000000
   50       31.782511   0.000000
   51       32.468125   0.000000
   52       33.670350   0.000000
   53       34.042875   0.000000
   54       34.113663   0.000000
   55       35.132623   0.000000
   56       35.682427   0.000000
 
  0.1052632E+00  0.0000000E+00  0.1052632E+00  0.1000000E-01
    1       -8.031072   1.000000
    2       -8.031072   1.000000
    3        1.488076   1.000000
    4        1.488076   1.000000
    5        2.454292   1.000000
    6        2.454292   1.000000
    7        2.592309   1.000000
    8        2.592309   1.000000
    9        4.547481   0.000000
   10        4.547481   0.000000
   11        6.953016   0.000000
   12        6.953016   0.000000
   13        7.940725   0.000000
   14        7.940725   0.000000
   15        8.193382   0.000000
   16        8.193382   0.000000
   17       11.218009   0.000000
   18       11.218009   0.000000
   19       11.729621   0.000000
   20       11.729622   0.000000
   21       12.984046   0.000000
   22       12.984046   0.000000
   23       13.954733   0.000000
   24       13.954733   0.000000
   25       13.982861   0.000000
   26       13.982861   0.000000
   27       14.657625   0.000000
   28       14.657625   0.000000
   29       17.582600   0.000000
   30       17.582601   0.000000
   31       22.567605   0.000000
   32       22.569913   0.000000
   33       22.800294   0.000000
   34       22.815298   0.000000
   35       23.796569   0.000000
   36       23.865076   0.000000
   37       24.394973   0.000000
   38       24.618519   0.000000
   39       25.186720   0.000000
   40       25.298187   0.000000
   41       26.280435   0.000000
   42       26.390774   0.000000
   43       26.409530   0.000000
   44       26.421328   0.000000
   45       27.684812   0.000000
   46       28.016187   0.000000
   47       28.528616   0.000000
   48       28.569699   0.000000
   49       28.886648   0.000000
   50       29.380304   0.000000
   51       29.399112   0.000000
   52       30.470127   0.000000
   53       34.806700   0.000000
   54       35.301312   0.000000
   55       35.916952   0.000000
   56       36.377252   0.000000
 
  0.1315789E+00  0.0000000E+00  0.1315789E+00  0.1000000E-01
    1       -7.952869   1.000000
    2       -7.952869   1.000000
    3        1.114928   1.000000
    4        1.114928   1.000000
    5        2.312162   1.000000
    6        2.312163   1.000000
    7        2.435765   1.000000
    8        2.435766   1.000000
    9        4.877112   0.000000
   10        4.877112   0.000000
   11        6.742335   0.000000
   12        6.742335   0.000000
   13        8.166817   0.000000
   14        8.166817   0.000000
   15        8.420300   0.000000
   16        8.420300   0.000000
   17       10.818314   0.000000
   18       10.818314   0.000000
   19       12.148905   0.000000
   20       12.148905   0.000000
   21       13.052212   0.000000
   22       13.052212   0.000000
   23       14.142367   0.000000
   24       14.142368   0.000000
   25       14.175228   0.000000
   26       14.175228   0.000000
   27       14.873897   0.000000
   28       14.873898   0.000000
   29       18.248356   0.000000
   30       18.248356   0.000000
   31       21.883228   0.000000
   32       21.883231   0.000000
   33       22.078413   0.000000
   34       22.078414   0.000000
   35       22.651285   0.000000
   36       22.651287   0.000000
   37       23.269767   0.000000
   38       23.269769   0.000000
   39       25.100853   0.000000
   40       25.101013   0.000000
   41       25.731049   0.000000
   42       25.731050   0.000000
   43       25.913488   0.000000
   44       25.913584   0.000000
   45       27.043126   0.000000
   46       27.045769   0.000000
   47       28.744830   0.000000
   48       28.749628   0.000000
   49       28.861498   0.000000
   50       28.867922   0.000000
   51       29.329742   0.000000
   52       29.329764   0.000000
   53       33.669595   0.000000
   54       34.762275   0.000000
   55       35.115256   0.000000
   56       35.825693   0.000000
 
  0.1578947E+00  0.0000000E+00  0.1578947E+00  0.1000000E-01
    1       -7.858296   1.000000
    2       -7.858296   1.000000
    3        0.743486   1.000000
    4        0.743486   1.000000
    5        2.158246   1.000000
    6        2.158246   1.000000
    7        2.267246   1.000000
    8        2.267247   1.000000
    9        5.171623   0.000000
   10        5.171623   0.000000
   11        6.529572   0.000000
   12        6.529572   0.000000
   13        8.432646   0.000000
   14        8.432646   0.000000
   15        8.679196   0.000000
   16        8.679196   0.000000
   17       10.466196   0.000000
   18       10.466196   0.000000
   19       12.617201   0.000000
   20       12.617201   0.000000
   21       13.135523   0.000000
   22       13.135523   0.000000
   23       14.370846   0.000000
   24       14.370846   0.000000
   25       14.408979   0.000000
   26       14.408979   0.000000
   27       15.092139   0.000000
   28       15.092139   0.000000
   29       18.971218   0.000000
   30       18.971218   0.000000
   31       21.276910   0.000000
   32       21.276918   0.000000
   33       21.473548   0.000000
   34       21.473559   0.000000
   35       22.073248   0.000000
   36       22.073250   0.000000
   37       22.767179   0.000000
   38       22.767185   0.000000
   39       25.156637   0.000000
   40       25.156690   0.000000
   41       25.774117   0.000000
   42       25.774193   0.000000
   43       25.954534   0.000000
   44       25.954579   0.000000
   45       27.118331   0.000000
   46       27.118391   0.000000
   47       29.278741   0.000000
   48       29.304725   0.000000
   49       29.417724   0.000000
   50       29.475645   0.000000
   51       30.026579   0.000000
   52       30.027581   0.000000
   53       31.266742   0.000000
   54       32.411603   0.000000
   55       34.565361   0.000000
   56       36.057333   0.000000
 
  0.1842105E+00  0.0000000E+00  0.1842105E+00  0.1000000E-01
    1       -7.748053   1.000000
    2       -7.748053   1.000000
    3        0.375191   1.000000
    4        0.375191   1.000000
    5        1.998282   1.000000
    6        1.998282   1.000000
    7        2.093438   1.000000
    8        2.093438   1.000000
    9        5.410660   0.000000
   10        5.410660   0.000000
   11        6.333252   0.000000
   12        6.333252   0.000000
   13        8.726658   0.000000
   14        8.726658   0.000000
   15        8.963811   0.000000
   16        8.963811   0.000000
   17       10.188973   0.000000
   18       10.188973   0.000000
   19       13.112846   0.000000
   20       13.112846   0.000000
   21       13.233568   0.000000
   22       13.233568   0.000000
   23       14.639296   0.000000
   24       14.639296   0.000000
   25       14.683125   0.000000
   26       14.683125   0.000000
   27       15.326764   0.000000
   28       15.326764   0.000000
   29       19.719673   0.000000
   30       19.719686   0.000000
   31       20.678563   0.000000
   32       20.679562   0.000000
   33       20.874985   0.000000
   34       20.875203   0.000000
   35       21.514978   0.000000
   36       21.515203   0.000000
   37       22.264686   0.000000
   38       22.265274   0.000000
   39       25.319512   0.000000
   40       25.372883   0.000000
   41       25.857418   0.000000
   42       25.925041   0.000000
   43       26.324154   0.000000
   44       26.447069   0.000000
   45       28.005267   0.000000
   46       28.526401   0.000000
   47       29.906508   0.000000
   48       30.003636   0.000000
   49       30.557298   0.000000
   50       30.559779   0.000000
   51       32.081529   0.000000
   52       32.293331   0.000000
   53       33.575667   0.000000
   54       34.329720   0.000000
   55       34.857182   0.000000
   56       34.864955   0.000000
 
  0.2105263E+00  0.0000000E+00  0.2105263E+00  0.1000000E-01
    1       -7.623070   1.000000
    2       -7.623070   1.000000
    3        0.011180   1.000000
    4        0.011180   1.000000
    5        1.837589   1.000000
    6        1.837589   1.000000
    7        1.920063   1.000000
    8        1.920063   1.000000
    9        5.563927   0.000000
   10        5.563927   0.000000
   11        6.174308   0.000000
   12        6.174308   0.000000
   13        9.041252   0.000000
   14        9.041252   0.000000
   15        9.268786   0.000000
   16        9.268787   0.000000
   17       10.006263   0.000000
   18       10.006263   0.000000
   19       13.346218   0.000000
   20       13.346218   0.000000
   21       13.622777   0.000000
   22       13.622778   0.000000
   23       14.946576   0.000000
   24       14.946577   0.000000
   25       14.996468   0.000000
   26       14.996468   0.000000
   27       15.588878   0.000000
   28       15.588878   0.000000
   29       20.086176   0.000000
   30       20.101396   0.000000
   31       20.281596   0.000000
   32       20.293720   0.000000
   33       20.437715   0.000000
   34       20.439473   0.000000
   35       20.986720   0.000000
   36       20.997106   0.000000
   37       21.830604   0.000000
   38       21.831857   0.000000
   39       25.472695   0.000000
   40       25.547063   0.000000
   41       26.169826   0.000000
   42       26.370863   0.000000
   43       26.780706   0.000000
   44       27.198333   0.000000
   45       27.936595   0.000000
   46       28.027139   0.000000
   47       30.555537   0.000000
   48       31.239047   0.000000
   49       31.754693   0.000000
   50       31.759775   0.000000
   51       32.343223   0.000000
   52       33.650604   0.000000
   53       33.762937   0.000000
   54       33.882849   0.000000
   55       35.061844   0.000000
   56       35.520676   0.000000
 
  0.2368421E+00  0.0000000E+00  0.2368421E+00  0.1000000E-01
    1       -7.484515   1.000000
    2       -7.484515   1.000000
    3       -0.347186   1.000000
    4       -0.347186   1.000000
    5        1.680437   1.000000
    6        1.680438   1.000000
    7        1.751511   1.000000
    8        1.751512   1.000000
    9        5.598136   0.000000
   10        5.598136   0.000000
   11        6.076473   0.000000
   12        6.076473   0.000000
   13        9.370577   0.000000
   14        9.370577   0.000000
   15        9.589072   0.000000
   16        9.589073   0.000000
   17        9.933928   0.000000
   18        9.933928   0.000000
   19       13.473243   0.000000
   20       13.473243   0.000000
   21       14.132898   0.000000
   22       14.132902   0.000000
   23       15.291010   0.000000
   24       15.291014   0.000000
   25       15.347372   0.000000
   26       15.347384   0.000000
   27       15.888508   0.000000
   28       15.888514   0.000000
   29       19.565221   0.000000
   30       19.635501   0.000000
   31       19.732823   0.000000
   32       19.768753   0.000000
   33       20.477936   0.000000
   34       20.560628   0.000000
   35       20.691343   0.000000
   36       20.771749   0.000000
   37       21.744296   0.000000
   38       21.785175   0.000000
   39       25.600662   0.000000
   40       25.680968   0.000000
   41       26.044411   0.000000
   42       26.268136   0.000000
   43       27.059714   0.000000
   44       27.162019   0.000000
   45       28.665661   0.000000
   46       29.673511   0.000000
   47       31.117681   0.000000
   48       31.406768   0.000000
   49       31.689644   0.000000
   50       31.949769   0.000000
   51       32.108590   0.000000
   52       33.924397   0.000000
   53       34.124220   0.000000
   54       34.208864   0.000000
   55       37.008884   0.000000
   56       38.301702   0.000000
 
  0.2631579E+00  0.0000000E+00  0.2631579E+00  0.1000000E-01
    1       -7.333982   1.000000
    2       -7.333982   1.000000
    3       -0.698144   1.000000
    4       -0.698144   1.000000
    5        1.530389   1.000000
    6        1.530390   1.000000
    7        1.591315   1.000000
    8        1.591315   1.000000
    9        5.529476   0.000000
   10        5.529476   0.000000
   11        6.021723   0.000000
   12        6.021723   0.000000
   13        9.708150   0.000000
   14        9.708150   0.000000
   15        9.910296   0.000000
   16        9.910297   0.000000
   17        9.989341   0.000000
   18        9.989342   0.000000
   19       13.614015   0.000000
   20       13.614019   0.000000
   21       14.625686   0.000000
   22       14.625702   0.000000
   23       15.670151   0.000000
   24       15.670163   0.000000
   25       15.733466   0.000000
   26       15.733475   0.000000
   27       16.235815   0.000000
   28       16.235815   0.000000
   29       18.965394   0.000000
   30       18.996580   0.000000
   31       19.151973   0.000000
   32       19.174825   0.000000
   33       20.024523   0.000000
   34       20.093126   0.000000
   35       20.369022   0.000000
   36       20.382982   0.000000
   37       22.451656   0.000000
   38       22.456435   0.000000
   39       25.673027   0.000000
   40       25.709243   0.000000
   41       25.850380   0.000000
   42       25.858615   0.000000
   43       26.200837   0.000000
   44       26.436997   0.000000
   45       26.967556   0.000000
   46       27.701439   0.000000
   47       29.577386   0.000000
   48       30.803815   0.000000
   49       31.142152   0.000000
   50       32.153483   0.000000
   51       32.246351   0.000000
   52       32.376398   0.000000
   53       32.667170   0.000000
   54       33.724458   0.000000
   55       34.315084   0.000000
   56       35.751296   0.000000
 
  0.2894737E+00  0.0000000E+00  0.2894737E+00  0.1000000E-01
    1       -7.173542   1.000000
    2       -7.173542   1.000000
    3       -1.039417   1.000000
    4       -1.039417   1.000000
    5        1.390295   1.000000
    6        1.390296   1.000000
    7        1.442228   1.000000
    8        1.442229   1.000000
    9        5.421207   0.000000
   10        5.421207   0.000000
   11        5.957089   0.000000
   12        5.957089   0.000000
   13       10.031210   0.000000
   14       10.031211   0.000000
   15       10.132629   0.000000
   16       10.132630   0.000000
   17       10.277901   0.000000
   18       10.277902   0.000000
   19       13.767773   0.000000
   20       13.767776   0.000000
   21       15.079387   0.000000
   22       15.079388   0.000000
   23       16.080514   0.000000
   24       16.080515   0.000000
   25       16.150944   0.000000
   26       16.150947   0.000000
   27       16.639326   0.000000
   28       16.639327   0.000000
   29       18.414204   0.000000
   30       18.424626   0.000000
   31       18.598711   0.000000
   32       18.608341   0.000000
   33       19.497046   0.000000
   34       19.511792   0.000000
   35       20.020126   0.000000
   36       20.030368   0.000000
   37       23.233397   0.000000
   38       23.236364   0.000000
   39       25.654728   0.000000
   40       25.777904   0.000000
   41       25.822335   0.000000
   42       25.923537   0.000000
   43       26.204639   0.000000
   44       26.307857   0.000000
   45       26.851296   0.000000
   46       26.853115   0.000000
   47       31.337321   0.000000
   48       31.785633   0.000000
   49       32.832462   0.000000
   50       32.914217   0.000000
   51       33.298716   0.000000
   52       33.638948   0.000000
   53       34.091530   0.000000
   54       34.110690   0.000000
   55       37.254437   0.000000
   56       37.476575   0.000000
 
  0.3157895E+00  0.0000000E+00  0.3157895E+00  0.1000000E-01
    1       -7.005941   1.000000
    2       -7.005941   1.000000
    3       -1.367879   1.000000
    4       -1.367879   1.000000
    5        1.262525   1.000000
    6        1.262525   1.000000
    7        1.306501   1.000000
    8        1.306502   1.000000
    9        5.311656   0.000000
   10        5.311656   0.000000
   11        5.863811   0.000000
   12        5.863811   0.000000
   13       10.296707   0.000000
   14       10.296710   0.000000
   15       10.445290   0.000000
   16       10.445291   0.000000
   17       10.625620   0.000000
   18       10.625621   0.000000
   19       13.933261   0.000000
   20       13.933263   0.000000
   21       15.469215   0.000000
   22       15.469235   0.000000
   23       16.514114   0.000000
   24       16.514138   0.000000
   25       16.589962   0.000000
   26       16.589995   0.000000
   27       17.098664   0.000000
   28       17.098697   0.000000
   29       17.905386   0.000000
   30       17.913848   0.000000
   31       18.083607   0.000000
   32       18.092532   0.000000
   33       19.051594   0.000000
   34       19.054288   0.000000
   35       19.655565   0.000000
   36       19.656414   0.000000
   37       23.980377   0.000000
   38       23.983295   0.000000
   39       25.218764   0.000000
   40       25.291511   0.000000
   41       25.422593   0.000000
   42       25.535010   0.000000
   43       26.157122   0.000000
   44       26.201505   0.000000
   45       26.867219   0.000000
   46       27.147683   0.000000
   47       29.522721   0.000000
   48       30.573626   0.000000
   49       31.457258   0.000000
   50       31.506269   0.000000
   51       33.633936   0.000000
   52       34.071732   0.000000
   53       34.128234   0.000000
   54       34.622193   0.000000
   55       37.108368   0.000000
   56       37.732360   0.000000
 
  0.3421053E+00  0.0000000E+00  0.3421053E+00  0.1000000E-01
    1       -6.834900   1.000000
    2       -6.834900   1.000000
    3       -1.679556   1.000000
    4       -1.679556   1.000000
    5        1.148761   1.000000
    6        1.148761   1.000000
    7        1.185700   1.000000
    8        1.185700   1.000000
    9        5.214917   0.000000
   10        5.214917   0.000000
   11        5.749146   0.000000
   12        5.749146   0.000000
   13       10.577973   0.000000
   14       10.577980   0.000000
   15       10.796282   0.000000
   16       10.796292   0.000000
   17       10.977787   0.000000
   18       10.977788   0.000000
   19       14.108639   0.000000
   20       14.108680   0.000000
   21       15.768363   0.000000
   22       15.768461   0.000000
   23       16.926328   0.000000
   24       16.931543   0.000000
   25       16.992558   0.000000
   26       16.998187   0.000000
   27       17.512750   0.000000
   28       17.560638   0.000000
   29       17.599950   0.000000
   30       17.604399   0.000000
   31       17.615046   0.000000
   32       17.653915   0.000000
   33       18.615385   0.000000
   34       18.621366   0.000000
   35       19.407887   0.000000
   36       19.409968   0.000000
   37       24.604442   0.000000
   38       24.643976   0.000000
   39       25.289182   0.000000
   40       25.450394   0.000000
   41       25.984006   0.000000
   42       26.006095   0.000000
   43       26.140480   0.000000
   44       26.188380   0.000000
   45       27.764723   0.000000
   46       28.012775   0.000000
   47       29.990611   0.000000
   48       30.401778   0.000000
   49       30.474524   0.000000
   50       30.529108   0.000000
   51       34.478789   0.000000
   52       34.574865   0.000000
   53       34.637748   0.000000
   54       34.953240   0.000000
   55       35.604425   0.000000
   56       35.856002   0.000000
 
  0.3684211E+00  0.0000000E+00  0.3684211E+00  0.1000000E-01
    1       -6.665476   1.000000
    2       -6.665476   1.000000
    3       -1.969026   1.000000
    4       -1.969026   1.000000
    5        1.050515   1.000000
    6        1.050516   1.000000
    7        1.081237   1.000000
    8        1.081237   1.000000
    9        5.136254   0.000000
   10        5.136254   0.000000
   11        5.625973   0.000000
   12        5.625973   0.000000
   13       10.884127   0.000000
   14       10.884136   0.000000
   15       11.147836   0.000000
   16       11.147850   0.000000
   17       11.327241   0.000000
   18       11.327248   0.000000
   19       14.290220   0.000000
   20       14.290278   0.000000
   21       15.943723   0.000000
   22       15.944207   0.000000
   23       16.827075   0.000000
   24       16.841502   0.000000
   25       16.927555   0.000000
   26       16.930624   0.000000
   27       17.636316   0.000000
   28       17.642412   0.000000
   29       17.738858   0.000000
   30       17.739468   0.000000
   31       18.111954   0.000000
   32       18.112967   0.000000
   33       18.232488   0.000000
   34       18.236042   0.000000
   35       19.309136   0.000000
   36       19.318459   0.000000
   37       24.594858   0.000000
   38       24.659965   0.000000
   39       24.712818   0.000000
   40       24.852397   0.000000
   41       24.985285   0.000000
   42       25.537142   0.000000
   43       25.897077   0.000000
   44       26.223117   0.000000
   45       26.978496   0.000000
   46       27.044779   0.000000
   47       27.734356   0.000000
   48       27.797651   0.000000
   49       28.975277   0.000000
   50       30.021381   0.000000
   51       34.646169   0.000000
   52       34.743309   0.000000
   53       34.881202   0.000000
   54       35.045393   0.000000
   55       35.519001   0.000000
   56       35.823325   0.000000
 
  0.3947368E+00  0.0000000E+00  0.3947368E+00  0.1000000E-01
    1       -6.504414   1.000000
    2       -6.504414   1.000000
    3       -2.229045   1.000000
    4       -2.229045   1.000000
    5        0.968932   1.000000
    6        0.968933   1.000000
    7        0.994195   1.000000
    8        0.994195   1.000000
    9        5.077715   0.000000
   10        5.077715   0.000000
   11        5.505804   0.000000
   12        5.505804   0.000000
   13       11.195771   0.000000
   14       11.195778   0.000000
   15       11.487878   0.000000
   16       11.487898   0.000000
   17       11.665302   0.000000
   18       11.665307   0.000000
   19       14.472737   0.000000
   20       14.472880   0.000000
   21       15.971597   0.000000
   22       15.972741   0.000000
   23       16.433715   0.000000
   24       16.442795   0.000000
   25       16.516948   0.000000
   26       16.526459   0.000000
   27       17.883765   0.000000
   28       17.883846   0.000000
   29       18.135343   0.000000
   30       18.136475   0.000000
   31       18.240079   0.000000
   32       18.240159   0.000000