Automatically generated mesh
      22
Reciprocal lattice
    0.00000000000000    0.00000000000000    0.00000000000000             1
    0.16666666666667    0.00000000000000    0.00000000000000             4
    0.33333333333333    0.00000000000000    0.00000000000000             4
    0.50000000000000    0.00000000000000    0.00000000000000             4
   -0.33333333333333    0.00000000000000    0.00000000000000             4
   -0.16666666666667    0.00000000000000    0.00000000000000             4
    0.16666666666667    0.16666666666667    0.00000000000000             6
    0.33333333333333    0.16666666666667    0.00000000000000            12
    0.50000000000000    0.16666666666667    0.00000000000000            12
   -0.33333333333333    0.16666666666667    0.00000000000000            12
   -0.16666666666667    0.16666666666667    0.00000000000000            12
    0.33333333333333    0.33333333333333    0.00000000000000             6
    0.50000000000000    0.33333333333333    0.00000000000000            12
   -0.33333333333333    0.33333333333333    0.00000000000000            12
   -0.16666666666667    0.33333333333333    0.00000000000000            12
    0.50000000000000    0.50000000000000    0.00000000000000             3
   -0.33333333333333    0.50000000000000    0.00000000000000            12
   -0.16666666666667    0.50000000000000    0.00000000000000            12
   -0.16666666666667   -0.33333333333333    0.00000000000000            12
    0.50000000000000    0.33333333333333    0.16666666666667            24
   -0.33333333333333    0.33333333333333    0.16666666666667            24
   -0.33333333333333    0.50000000000000    0.16666666666667            12
