       N       E                     dE             d eps       ncg     rms          ort
SDA:   1     0.500955772877E+02    0.50096E+02   -0.13269E+02  5250   0.332E+02 0.000E+00
DMP:   2     0.375562128545E+02   -0.12539E+02   -0.15184E+02  5250   0.268E+02 0.292E+02
DMP:   3     0.183436673532E+02   -0.19213E+02   -0.20073E+02  5250   0.306E+02 0.512E+02
DMP:   4     0.261216867473E+01   -0.15731E+02   -0.81013E+01  5250   0.115E+02 0.229E+02
DMP:   5    -0.328750319926E+01   -0.58997E+01   -0.32387E+01  5250   0.477E+01 0.870E+01
DMP:   6    -0.603200469431E+01   -0.27445E+01   -0.18647E+01  5250   0.263E+01 0.532E+01
DMP:   7    -0.765587344237E+01   -0.16239E+01   -0.15242E+01  5250   0.202E+01 0.468E+01
DMP:   8    -0.863472586019E+01   -0.97885E+00   -0.41203E+00  5250   0.492E+00 0.141E+01
DMP:   9    -0.901007191119E+01   -0.37535E+00   -0.20388E+00  5250   0.235E+00 0.719E+00
DMP:  10    -0.918292006920E+01   -0.17285E+00   -0.97822E-01  5250   0.111E+00 0.351E+00
DMP:  11    -0.926650741127E+01   -0.83587E-01   -0.45876E-01  5250   0.503E-01 0.169E+00
DMP:  12    -0.930492720916E+01   -0.38420E-01   -0.20017E-01  5250   0.210E-01 0.759E-01
DMP:  13    -0.932143795360E+01   -0.16511E-01   -0.82222E-02  5250   0.836E-02 0.319E-01
DMP:  14    -0.932809223038E+01   -0.66543E-02   -0.31762E-02  5250   0.316E-02 0.125E-01
DMP:  15    -0.933061903538E+01   -0.25268E-02   -0.11564E-02  5250   0.112E-02 0.465E-02
DMP:  16    -0.933152255609E+01   -0.90352E-03   -0.39190E-03  5250   0.363E-03 0.161E-02
DMP:  17    -0.933182250003E+01   -0.29994E-03   -0.12300E-03  5250   0.110E-03 0.517E-03
DMP:  18    -0.933191474621E+01   -0.92246E-04   -0.36215E-04  5250   0.320E-04 0.153E-03
DMP:  19    -0.933194131435E+01   -0.26568E-04   -0.99909E-05  5250   0.886E-05 0.422E-04
DMP:  20    -0.933194839563E+01   -0.70813E-05   -0.24888E-05  5250   0.225E-05 0.104E-04
   1 F= -.93319484E+01 E0= -.93320405E+01  d E =0.276175E-03  mag=    -0.0000     0.0000    -0.0000
