       N       E                     dE             d eps       ncg     rms          ort
SDA:   1     0.517950570107E+02    0.51795E+02   -0.15636E+02  5600   0.391E+02 0.000E+00
DMP:   2     0.391022714529E+02   -0.12693E+02   -0.13302E+02  5600   0.228E+02 0.274E+02
DMP:   3     0.226599127253E+02   -0.16442E+02   -0.17803E+02  5600   0.259E+02 0.487E+02
DMP:   4     0.556734616276E+01   -0.17093E+02   -0.10466E+02  5600   0.137E+02 0.326E+02
DMP:   5    -0.281775368505E+01   -0.83851E+01   -0.49037E+01  5600   0.604E+01 0.163E+02
DMP:   6    -0.743381118844E+01   -0.46161E+01   -0.22809E+01  5600   0.267E+01 0.793E+01
DMP:   7    -0.935937201029E+01   -0.19256E+01   -0.96463E+00  5600   0.108E+01 0.348E+01
DMP:   8    -0.101586401476E+02   -0.79927E+00   -0.42938E+00  5600   0.463E+00 0.160E+01
DMP:   9    -0.105200952605E+02   -0.36146E+00   -0.19537E+00  5600   0.204E+00 0.745E+00
DMP:  10    -0.106798472841E+02   -0.15975E+00   -0.78133E-01  5600   0.787E-01 0.305E+00
DMP:  11    -0.107438125549E+02   -0.63965E-01   -0.30799E-01  5600   0.300E-01 0.123E+00
DMP:  12    -0.107687371300E+02   -0.24925E-01   -0.11582E-01  5600   0.109E-01 0.473E-01
DMP:  13    -0.107779349022E+02   -0.91978E-02   -0.40390E-02  5600   0.366E-02 0.169E-01
DMP:  14    -0.107810897292E+02   -0.31548E-02   -0.13253E-02  5600   0.115E-02 0.566E-02
DMP:  15    -0.107821129032E+02   -0.10232E-02   -0.40913E-03  5600   0.338E-03 0.179E-02
DMP:  16    -0.107824225732E+02   -0.30967E-03   -0.11609E-03  5600   0.908E-04 0.522E-03
DMP:  17    -0.107825080896E+02   -0.85516E-04   -0.29565E-04  5600   0.217E-04 0.137E-03
   1 F= -.10782508E+02 E0= -.10782622E+02  d E =0.341542E-03  mag=    -0.0000    -0.0000    -0.0000
