       N       E                     dE             d eps       ncg     rms          ort
