 vasp.5.4.4.18Apr17-6-g9f103f2a35 (build Nov 08 2017 12:56:59) complex          
  
 executed on             LinuxIFC date 2020.06.22  23:34:06
 running on   56 total cores
 distrk:  each k-point on   56 cores,    1 groups
 distr:  one band on NCORES_PER_BAND=   1 cores,   56 groups


--------------------------------------------------------------------------------------------------------


 INCAR:
 POTCAR:    PAW_PBE In 08Apr2002                  
 POTCAR:    PAW_PBE As 22Sep2009                  

 ----------------------------------------------------------------------------- 
|                                                                             |
|           W    W    AA    RRRRR   N    N  II  N    N   GGGG   !!!           |
|           W    W   A  A   R    R  NN   N  II  NN   N  G    G  !!!           |
|           W    W  A    A  R    R  N N  N  II  N N  N  G       !!!           |
|           W WW W  AAAAAA  RRRRR   N  N N  II  N  N N  G  GGG   !            |
|           WW  WW  A    A  R   R   N   NN  II  N   NN  G    G                |
|           W    W  A    A  R    R  N    N  II  N    N   GGGG   !!!           |
|                                                                             |
|      For optimal performance we recommend to set                            |
|        NCORE= 4 - approx SQRT( number of cores)                             |
|      NCORE specifies how many cores store one orbital (NPAR=cpu/NCORE).     |
|      This setting can  greatly improve the performance of VASP for DFT.     |
|      The default,   NCORE=1            might be grossly inefficient         |
|      on modern multi-core architectures or massively parallel machines.     |
|      Do your own testing !!!!                                               |
|      Unfortunately you need to use the default for GW and RPA calculations. |
|      (for HF NCORE is supported but not extensively tested yet)             |
|                                                                             |
 ----------------------------------------------------------------------------- 

 POTCAR:    PAW_PBE In 08Apr2002                  
   VRHFIN =In: s2p1                                                             
   LEXCH  = PE                                                                  
   EATOM  =    53.7908 eV,    3.9535 Ry                                         
                                                                                
   TITEL  = PAW_PBE In 08Apr2002                                                
   LULTRA =        F    use ultrasoft PP ?                                      
   IUNSCR =        1    unscreen: 0-lin 1-nonlin 2-no                           
   RPACOR =    2.400    partial core radius                                     
   POMASS =  114.820; ZVAL   =    3.000    mass and valenz                      
   RCORE  =    3.100    outmost cutoff radius                                   
   RWIGS  =    3.170; RWIGS  =    1.677    wigner-seitz radius (au A)           
   ENMAX  =   95.934; ENMIN  =   71.951 eV                                      
   ICORE  =        3    local potential                                         
   LCOR   =        T    correct aug charges                                     
   LPAW   =        T    paw PP                                                  
   EAUG   =  237.125                                                            
   DEXC   =    0.000                                                            
   RMAX   =    3.168    core radius for proj-oper                               
   RAUG   =    1.300    factor for augmentation sphere                          
   RDEP   =    3.187    radius for radial grids                                 
   RDEPT  =    2.711    core radius for aug-charge                              
                                                                                
   Atomic configuration                                                         
   13 entries                                                                   
     n  l   j            E        occ.                                          
     1  0  0.50    -27747.9169   2.0000                                         
     2  0  0.50     -4154.4438   2.0000                                         
     2  1  1.50     -3728.4305   6.0000                                         
     3  0  0.50      -788.3680   2.0000                                         
     3  1  1.50      -648.9215   6.0000                                         
     3  2  2.50      -432.5893  10.0000                                         
     4  0  0.50      -119.6363   2.0000                                         
     4  1  1.50       -78.1086   6.0000                                         
     4  2  2.50       -18.6227  10.0000                                         
     5  0  0.50        -8.2107   2.0000                                         
     5  1  0.50        -2.5185   1.0000                                         
     5  2  2.50        -1.3606   0.0000                                         
     4  3  2.50        -2.7212   0.0000                                         
   Description                                                                  
     l       E           TYP  RCUT    TYP  RCUT                                 
     0     -8.2107306     23  3.100                                             
     0     -6.1485975     23  3.100                                             
     1     -2.5184867     23  3.100                                             
     1      3.2427302     23  3.100                                             
     2     -1.3605826     23  3.100                                             
     3     -1.3605826     23  3.100                                             
  local pseudopotential read in
  partial core-charges read in
  partial kinetic energy density read in
  atomic valenz-charges read in
  non local Contribution for L=           0  read in
    real space projection operators read in
  non local Contribution for L=           0  read in
    real space projection operators read in
  non local Contribution for L=           1  read in
    real space projection operators read in
  non local Contribution for L=           1  read in
    real space projection operators read in
  non local Contribution for L=           2  read in
    real space projection operators read in
    PAW grid and wavefunctions read in
 
   number of l-projection  operators is LMAX  =           5
   number of lm-projection operators is LMMAX =          13
 
 POTCAR:    PAW_PBE As 22Sep2009                  
   VRHFIN =As: s2p3                                                             
   LEXCH  = PE                                                                  
   EATOM  =   170.1867 eV,   12.5084 Ry                                         
                                                                                
   TITEL  = PAW_PBE As 22Sep2009                                                
   LULTRA =        F    use ultrasoft PP ?                                      
   IUNSCR =        1    unscreen: 0-lin 1-nonlin 2-no                           
   RPACOR =    1.900    partial core radius                                     
   POMASS =   74.922; ZVAL   =    5.000    mass and valenz                      
   RCORE  =    2.100    outmost cutoff radius                                   
   RWIGS  =    2.300; RWIGS  =    1.217    wigner-seitz radius (au A)           
   ENMAX  =  208.702; ENMIN  =  156.526 eV                                      
   ICORE  =        3    local potential                                         
   LCOR   =        T    correct aug charges                                     
   LPAW   =        T    paw PP                                                  
   EAUG   =  462.758                                                            
   DEXC   =    0.000                                                            
   RMAX   =    2.144    core radius for proj-oper                               
   RAUG   =    1.300    factor for augmentation sphere                          
   RDEP   =    2.140    radius for radial grids                                 
   RDEPT  =    1.956    core radius for aug-charge                              
                                                                                
   Atomic configuration                                                         
   10 entries                                                                   
     n  l   j            E        occ.                                          
     1  0  0.50    -11718.0418   2.0000                                         
     2  0  0.50     -1486.5454   2.0000                                         
     2  1  1.50     -1303.3889   6.0000                                         
     3  0  0.50      -190.2849   2.0000                                         
     3  1  1.50      -133.6555   6.0000                                         
     3  2  2.50       -40.6443  10.0000                                         
     4  0  0.50       -14.4936   2.0000                                         
     4  1  0.50        -5.1947   3.0000                                         
     4  2  1.50        -5.4423   0.0000                                         
     4  3  2.50        -5.4423   0.0000                                         
   Description                                                                  
     l       E           TYP  RCUT    TYP  RCUT                                 
     0    -14.4935570     23  2.100                                             
     0    -11.9212055     23  2.100                                             
     1     -5.1947127     23  2.100                                             
     1     27.2116520     23  2.100                                             
     2     -5.4423304     23  2.100                                             
     3     -1.3605826      7  2.100                                             
  local pseudopotential read in
  partial core-charges read in
  partial kinetic energy density read in
  atomic valenz-charges read in
  non local Contribution for L=           0  read in
    real space projection operators read in
  non local Contribution for L=           0  read in
    real space projection operators read in
  non local Contribution for L=           1  read in
    real space projection operators read in
  non local Contribution for L=           1  read in
    real space projection operators read in
  non local Contribution for L=           2  read in
    real space projection operators read in
    PAW grid and wavefunctions read in
 
   number of l-projection  operators is LMAX  =           5
   number of lm-projection operators is LMMAX =          13
 
  PAW_PBE In 08Apr2002                  :
 energy of atom  1       EATOM=  -53.7908
 kinetic energy error for atom=    0.0001 (will be added to EATOM!!)
  PAW_PBE As 22Sep2009                  :
 energy of atom  2       EATOM= -170.1867
 kinetic energy error for atom=    0.0022 (will be added to EATOM!!)
 
 
 POSCAR: In As                                   
  positions in direct lattice
  No initial velocities read in
 exchange correlation table for  LEXCH =        8
   RHO(1)=    0.500       N(1)  =     2000
   RHO(2)=  100.500       N(2)  =     4000
 


--------------------------------------------------------------------------------------------------------


 ion  position               nearest neighbor table
   1  0.000  0.000  0.000-   2 2.62   2 2.62   2 2.62   2 2.62
   2  0.250  0.250  0.250-   1 2.62   1 2.62   1 2.62   1 2.62
 
  LATTYP: Found a face centered cubic cell.
 ALAT       =     6.0584000000
  
  Lattice vectors:
  
 A1 = (   0.0000000000,   3.0292000000,   3.0292000000)
 A2 = (   3.0292000000,   0.0000000000,   3.0292000000)
 A3 = (   3.0292000000,   3.0292000000,   0.0000000000)


Analysis of symmetry for initial positions (statically):
=====================================================================
 Subroutine PRICEL returns:
 Original cell was already a primitive cell.
 

 Routine SETGRP: Setting up the symmetry group for a 
 face centered cubic supercell.


 Subroutine GETGRP returns: Found 24 space group operations
 (whereof 24 operations were pure point group operations)
 out of a pool of 48 trial point group operations.


The static configuration has the point symmetry T_d .


Analysis of symmetry for dynamics (positions and initial velocities):
=====================================================================
 Subroutine PRICEL returns:
 Original cell was already a primitive cell.
 

 Routine SETGRP: Setting up the symmetry group for a 
 face centered cubic supercell.


 Subroutine GETGRP returns: Found 24 space group operations
 (whereof 24 operations were pure point group operations)
 out of a pool of 48 trial point group operations.


The dynamic configuration has the point symmetry T_d .


Analysis of structural, dynamic, and magnetic symmetry:
=====================================================================
 Subroutine PRICEL returns:
 Original cell was already a primitive cell.
 

 Routine SETGRP: Setting up the symmetry group for a 
 face centered cubic supercell.


 Subroutine GETGRP returns: Found 24 space group operations
 (whereof 24 operations were pure point group operations)
 out of a pool of 48 trial point group operations.


The (compounded) configuration has the point symmetry T_d .


 Subroutine INISYM returns: Found 24 space group operations
 (whereof 24 operations are pure point group operations),
 and found     1 'primitive' translations

 
 
 KPOINTS: band                                    
  interpolating k-points between supplied coordinates
  k-points in reciprocal lattice
Space group operators:
 irot       det(A)        alpha          n_x          n_y          n_z        tau_x        tau_y        tau_z
    1     1.000000     0.000000     1.000000     0.000000     0.000000     0.000000     0.000000     0.000000
    2     1.000000   120.000000    -0.577350    -0.577350    -0.577350     0.000000     0.000000     0.000000
    3     1.000000   120.000000     0.577350     0.577350     0.577350     0.000000     0.000000     0.000000
    4    -1.000000    90.000000     0.000000     0.000000    -1.000000     0.000000     0.000000     0.000000
    5    -1.000000   180.000000     0.000000     0.707107     0.707107     0.000000     0.000000     0.000000
    6    -1.000000    90.000000     0.000000     1.000000     0.000000     0.000000     0.000000     0.000000
    7     1.000000   180.000000     0.000000     0.000000     1.000000     0.000000     0.000000     0.000000
    8     1.000000   120.000000    -0.577350     0.577350     0.577350     0.000000     0.000000     0.000000
    9     1.000000   120.000000    -0.577350     0.577350    -0.577350     0.000000     0.000000     0.000000
   10    -1.000000    90.000000     0.000000     0.000000     1.000000     0.000000     0.000000     0.000000
   11    -1.000000    90.000000    -1.000000     0.000000     0.000000     0.000000     0.000000     0.000000
   12    -1.000000   180.000000     0.707107     0.000000     0.707107     0.000000     0.000000     0.000000
   13     1.000000   120.000000     0.577350    -0.577350     0.577350     0.000000     0.000000     0.000000
   14     1.000000   120.000000    -0.577350    -0.577350     0.577350     0.000000     0.000000     0.000000
   15     1.000000   180.000000     1.000000     0.000000     0.000000     0.000000     0.000000     0.000000
   16    -1.000000    90.000000     0.000000    -1.000000     0.000000     0.000000     0.000000     0.000000
   17    -1.000000   180.000000     0.707107     0.707107     0.000000     0.000000     0.000000     0.000000
   18    -1.000000    90.000000     1.000000     0.000000     0.000000     0.000000     0.000000     0.000000
   19     1.000000   120.000000     0.577350    -0.577350    -0.577350     0.000000     0.000000     0.000000
   20     1.000000   180.000000     0.000000     1.000000     0.000000     0.000000     0.000000     0.000000
   21     1.000000   120.000000     0.577350     0.577350    -0.577350     0.000000     0.000000     0.000000
   22    -1.000000   180.000000     0.000000    -0.707107     0.707107     0.000000     0.000000     0.000000
   23    -1.000000   180.000000     0.707107    -0.707107     0.000000     0.000000     0.000000     0.000000
   24    -1.000000   180.000000     0.707107     0.000000    -0.707107     0.000000     0.000000     0.000000


--------------------------------------------------------------------------------------------------------




 Dimension of arrays:
   k-points           NKPTS =    100   k-points in BZ     NKDIM =    100   number of bands    NBANDS=     56
   number of dos      NEDOS =    301   number of ions     NIONS =      2
   non local maximal  LDIM  =      5   non local SUM 2l+1 LMDIM =     13
   total plane-waves  NPLWV =   5832
   max r-space proj   IRMAX =      1   max aug-charges    IRDMAX=  12033
   dimension x,y,z NGX =    18 NGY =   18 NGZ =   18
   dimension x,y,z NGXF=    36 NGYF=   36 NGZF=   36
   support grid    NGXF=    36 NGYF=   36 NGZF=   36
   ions per type =               1   1
   NGX,Y,Z   is equivalent  to a cutoff of   6.99,  6.99,  6.99 a.u.
   NGXF,Y,Z  is equivalent  to a cutoff of  13.97, 13.97, 13.97 a.u.

 SYSTEM =  unknown system                          
 POSCAR =  In As                                   

 Startparameter for this run:
   NWRITE =      2    write-flag & timer
   PREC   = n         normal or accurate (medium, high low for compatibility)
   ISTART =      1    job   : 0-new  1-cont  2-samecut
   ICHARG =     11    charge: 1-file 2-atom 10-const
   ISPIN  =      1    spin polarized calculation?
   LNONCOLLINEAR =      T non collinear calculations
   LSORBIT =      T    spin-orbit coupling
   INIWAV =      1    electr: 0-lowe 1-rand  2-diag
   LASPH  =      F    aspherical Exc in radial PAW
   METAGGA=      F    non-selfconsistent MetaGGA calc.

 Electronic Relaxation 1
   ENCUT  =  300.0 eV  22.05 Ry    4.70 a.u.   6.05  6.05  6.05*2*pi/ulx,y,z
   ENINI  =  300.0     initial cutoff
   ENAUG  =  462.8 eV  augmentation charge cutoff
   NELM   =     60;   NELMIN=  2; NELMDL=  0     # of ELM steps 
   EDIFF  = 0.1E-03   stopping-criterion for ELM
   LREAL  =      F    real-space projection
   NLSPLINE    = F    spline interpolate recip. space projectors
   LCOMPAT=      F    compatible to vasp.4.4
   GGA_COMPAT  = T    GGA compatible to vasp.4.4-vasp.4.6
   LMAXPAW     = -100 max onsite density
   LMAXMIX     =    4 max onsite mixed and CHGCAR
   VOSKOWN=      0    Vosko Wilk Nusair interpolation
   ROPT   =    0.00000   0.00000
 Ionic relaxation
   EDIFFG = 0.1E-02   stopping-criterion for IOM
   NSW    =      0    number of steps for IOM
   NBLOCK =      1;   KBLOCK =      1    inner block; outer block 
   IBRION =     -1    ionic relax: 0-MD 1-quasi-New 2-CG
   NFREE  =      0    steps in history (QN), initial steepest desc. (CG)
   ISIF   =      2    stress and relaxation
   IWAVPR =     10    prediction:  0-non 1-charg 2-wave 3-comb
   ISYM   =      2    0-nonsym 1-usesym 2-fastsym
   LCORR  =      T    Harris-Foulkes like correction to forces

   POTIM  = 0.5000    time-step for ionic-motion
   TEIN   =    0.0    initial temperature
   TEBEG  =    0.0;   TEEND  =   0.0 temperature during run
   SMASS  =  -3.00    Nose mass-parameter (am)
   estimated Nose-frequenzy (Omega)   =  0.10E-29 period in steps =****** mass=  -0.419E-27a.u.
   SCALEE = 1.0000    scale energy and forces
   NPACO  =    256;   APACO  = 16.0  distance and # of slots for P.C.
   PSTRESS=    0.0 pullay stress

  Mass of Ions in am
   POMASS = 114.82 74.92
  Ionic Valenz
   ZVAL   =   3.00  5.00
  Atomic Wigner-Seitz radii
   RWIGS  =  -1.00 -1.00
  virtual crystal weights 
   VCA    =   1.00  1.00
   NELECT =       8.0000    total number of electrons
   NUPDOWN=      -1.0000    fix difference up-down

 DOS related values:
   EMIN   =  10.00;   EMAX   =-10.00  energy-range for DOS
   EFERMI =   0.00
   ISMEAR =     1;   SIGMA  =   0.05  broadening in eV -4-tet -1-fermi 0-gaus

 Electronic relaxation 2 (details)
   IALGO  =     53    algorithm
   LDIAG  =      T    sub-space diagonalisation (order eigenvalues)
   LSUBROT=      F    optimize rotation matrix (better conditioning)
   TURBO    =      0    0=normal 1=particle mesh
   IRESTART =      0    0=no restart 2=restart with 2 vectors
   NREBOOT  =      0    no. of reboots
   NMIN     =      0    reboot dimension
   EREF     =   0.00    reference energy to select bands
   IMIX   =      4    mixing-type and parameters
     AMIX     =   0.40;   BMIX     =  1.00
     AMIX_MAG =   1.60;   BMIX_MAG =  1.00
     AMIN     =   0.10
     WC   =   100.;   INIMIX=   1;  MIXPRE=   1;  MAXMIX= -45

 Intra band minimization:
   WEIMIN = 0.0000     energy-eigenvalue tresh-hold
   EBREAK =  0.45E-06  absolut break condition
   DEPER  =   0.30     relativ break condition  

   TIME   =   0.40     timestep for ELM

  volume/ion in A,a.u.               =      27.80       187.58
  Fermi-wavevector in a.u.,A,eV,Ry     =   0.857894  1.621184 10.013641  0.735982
  Thomas-Fermi vector in A             =   1.975016
 
 Write flags
   LWAVE        =      F    write WAVECAR
   LDOWNSAMPLE  =      F    k-point downsampling of WAVECAR
   LCHARG       =      F    write CHGCAR
   LVTOT        =      F    write LOCPOT, total local potential
   LVHAR        =      F    write LOCPOT, Hartree potential only
   LELF         =      F    write electronic localiz. function (ELF)
   LORBIT       =      0    0 simple, 1 ext, 2 COOP (PROOUT), +10 PAW based schemes


 Dipole corrections
   LMONO  =      F    monopole corrections only (constant potential shift)
   LDIPOL =      F    correct potential (dipole corrections)
   IDIPOL =      0    1-x, 2-y, 3-z, 4-all directions 
   EPSILON=  1.0000000 bulk dielectric constant

 LDA+U is selected, type is set to LDAUTYPE =  2
   angular momentum for each species LDAUL =     1    1
   U (eV)           for each species LDAUU =   2.3-10.0
   J (eV)           for each species LDAUJ =   0.0  0.0
 Exchange correlation treatment:
   GGA     =    PE    GGA type
   LEXCH   =     8    internal setting for exchange type
   VOSKOWN=      0    Vosko Wilk Nusair interpolation
   LHFCALC =     F    Hartree Fock is set to
   LHFONE  =     F    Hartree Fock one center treatment
   AEXX    =    0.0000 exact exchange contribution

 Linear response parameters
   LEPSILON=     F    determine dielectric tensor
   LRPA    =     F    only Hartree local field effects (RPA)
   LNABLA  =     F    use nabla operator in PAW spheres
   LVEL    =     F    velocity operator in full k-point grid
   LINTERFAST=   F  fast interpolation
   KINTER  =     0    interpolate to denser k-point grid
   CSHIFT  =0.1000    complex shift for real part using Kramers Kronig
   OMEGAMAX=  -1.0    maximum frequency
   DEG_THRESHOLD= 0.2000000E-02 threshold for treating states as degnerate
   RTIME   =   -0.100 relaxation time in fs
  (WPLASMAI=    0.000 imaginary part of plasma frequency in eV, 0.658/RTIME)
   DFIELD  = 0.0000000 0.0000000 0.0000000 field for delta impulse in time
 
 Orbital magnetization related:
   ORBITALMAG=     F  switch on orbital magnetization
   LCHIMAG   =     F  perturbation theory with respect to B field
   DQ        =  0.001000  dq finite difference perturbation B field
   LLRAUG    =     F  two centre corrections for induced B field



--------------------------------------------------------------------------------------------------------


 Static calculation
 charge density and potential remain constant during run
 non collinear spin polarized calculation
 Conjugate gradient for all bands (Freysoldt, et al. PRB 79, 241103 (2009))
 perform sub-space diagonalisation
    before iterative eigenvector-optimisation
 no mixing
 using additional bands           52
 reciprocal scheme for non local part
 use partial core corrections
 calculate Harris-corrections to forces 
   (improved forces if not selfconsistent)
 use gradient corrections 
 WARNING: stress and forces are not correct
  (second derivative of E(xc) not defined)
 use of overlap-Matrix (Vanderbilt PP)
 Methfessel and Paxton  Order N= 1 SIGMA  =   0.05


--------------------------------------------------------------------------------------------------------


  energy-cutoff  :      300.00
  volume of cell :       55.59
      direct lattice vectors                 reciprocal lattice vectors
     0.000000000  3.029200000  3.029200000    -0.165060082  0.165060082  0.165060082
     3.029200000  0.000000000  3.029200000     0.165060082 -0.165060082  0.165060082
     3.029200000  3.029200000  0.000000000     0.165060082  0.165060082 -0.165060082

  length of vectors
     4.283935723  4.283935723  4.283935723     0.285892448  0.285892448  0.285892448


 
 old parameters found on file WAVECAR:
  energy-cutoff  :      300.00
  volume of cell :       55.59
      direct lattice vectors                 reciprocal lattice vectors
     0.000000000  3.029200000  3.029200000    -0.165060082  0.165060082  0.165060082
     3.029200000  0.000000000  3.029200000     0.165060082 -0.165060082  0.165060082
     3.029200000  3.029200000  0.000000000     0.165060082  0.165060082 -0.165060082

  length of vectors

 
 k-points in units of 2pi/SCALE and weight: band                                    
   0.00000000  0.00000000  0.00000000       0.010
   0.00000000  0.00868737  0.00000000       0.010
   0.00000000  0.01737475  0.00000000       0.010
   0.00000000  0.02606212  0.00000000       0.010
   0.00000000  0.03474949  0.00000000       0.010
   0.00000000  0.04343686  0.00000000       0.010
   0.00000000  0.05212424  0.00000000       0.010
   0.00000000  0.06081161  0.00000000       0.010
   0.00000000  0.06949898  0.00000000       0.010
   0.00000000  0.07818635  0.00000000       0.010
   0.00000000  0.08687373  0.00000000       0.010
   0.00000000  0.09556110  0.00000000       0.010
   0.00000000  0.10424847  0.00000000       0.010
   0.00000000  0.11293585  0.00000000       0.010
   0.00000000  0.12162322  0.00000000       0.010
   0.00000000  0.13031059  0.00000000       0.010
   0.00000000  0.13899796  0.00000000       0.010
   0.00000000  0.14768534  0.00000000       0.010
   0.00000000  0.15637271  0.00000000       0.010
   0.00000000  0.16506008  0.00000000       0.010
   0.00000000  0.16506008  0.00000000       0.010
   0.00434369  0.16506008 -0.00000000       0.010
   0.00868737  0.16506008  0.00000000       0.010
   0.01303106  0.16506008  0.00000000       0.010
   0.01737475  0.16506008  0.00000000       0.010
   0.02171843  0.16506008  0.00000000       0.010
   0.02606212  0.16506008 -0.00000000       0.010
   0.03040580  0.16506008  0.00000000       0.010
   0.03474949  0.16506008  0.00000000       0.010
   0.03909318  0.16506008  0.00000000       0.010
   0.04343686  0.16506008  0.00000000       0.010
   0.04778055  0.16506008  0.00000000       0.010
   0.05212424  0.16506008  0.00000000       0.010
   0.05646792  0.16506008  0.00000000       0.010
   0.06081161  0.16506008 -0.00000000       0.010
   0.06515530  0.16506008 -0.00000000       0.010
   0.06949898  0.16506008  0.00000000       0.010
   0.07384267  0.16506008  0.00000000       0.010
   0.07818635  0.16506008  0.00000000       0.010
   0.08253004  0.16506008  0.00000000       0.010
   0.08253004  0.16506008  0.00000000       0.010
   0.08253004  0.16071640  0.00434369       0.010
   0.08253004  0.15637271  0.00868737       0.010
   0.08253004  0.15202902  0.01303106       0.010
   0.08253004  0.14768534  0.01737475       0.010
   0.08253004  0.14334165  0.02171843       0.010
   0.08253004  0.13899796  0.02606212       0.010
   0.08253004  0.13465428  0.03040580       0.010
   0.08253004  0.13031059  0.03474949       0.010
   0.08253004  0.12596690  0.03909318       0.010
   0.08253004  0.12162322  0.04343686       0.010
   0.08253004  0.11727953  0.04778055       0.010
   0.08253004  0.11293585  0.05212424       0.010
   0.08253004  0.10859216  0.05646792       0.010
   0.08253004  0.10424847  0.06081161       0.010
   0.08253004  0.09990479  0.06515530       0.010
   0.08253004  0.09556110  0.06949898       0.010
   0.08253004  0.09121741  0.07384267       0.010
   0.08253004  0.08687373  0.07818635       0.010
   0.08253004  0.08253004  0.08253004       0.010
   0.08253004  0.08253004  0.08253004       0.010
   0.07818635  0.07818635  0.07818635       0.010
   0.07384267  0.07384267  0.07384267       0.010
   0.06949898  0.06949898  0.06949898       0.010
   0.06515530  0.06515530  0.06515530       0.010
   0.06081161  0.06081161  0.06081161       0.010
   0.05646792  0.05646792  0.05646792       0.010
   0.05212424  0.05212424  0.05212424       0.010
   0.04778055  0.04778055  0.04778055       0.010
   0.04343686  0.04343686  0.04343686       0.010
   0.03909318  0.03909318  0.03909318       0.010
   0.03474949  0.03474949  0.03474949       0.010
   0.03040580  0.03040580  0.03040580       0.010
   0.02606212  0.02606212  0.02606212       0.010
   0.02171843  0.02171843  0.02171843       0.010
   0.01737475  0.01737475  0.01737475       0.010
   0.01303106  0.01303106  0.01303106       0.010
   0.00868737  0.00868737  0.00868737       0.010
   0.00434369  0.00434369  0.00434369       0.010
   0.00000000  0.00000000  0.00000000       0.010
   0.00000000  0.00000000  0.00000000       0.010
   0.00651553  0.00651553  0.00000000       0.010
   0.01303106  0.01303106  0.00000000       0.010
   0.01954659  0.01954659  0.00000000       0.010
   0.02606212  0.02606212  0.00000000       0.010
   0.03257765  0.03257765  0.00000000       0.010
   0.03909318  0.03909318  0.00000000       0.010
   0.04560871  0.04560871  0.00000000       0.010
   0.05212424  0.05212424  0.00000000       0.010
   0.05863977  0.05863977  0.00000000       0.010
   0.06515530  0.06515530  0.00000000       0.010
   0.07167083  0.07167083  0.00000000       0.010
   0.07818635  0.07818635  0.00000000       0.010
   0.08470188  0.08470188  0.00000000       0.010
   0.09121741  0.09121741  0.00000000       0.010
   0.09773294  0.09773294  0.00000000       0.010
   0.10424847  0.10424847  0.00000000       0.010
   0.11076400  0.11076400  0.00000000       0.010
   0.11727953  0.11727953  0.00000000       0.010
   0.12379506  0.12379506  0.00000000       0.010
 
 k-points in reciprocal lattice and weights: band                                    
   0.00000000  0.00000000  0.00000000       0.010
   0.02631579  0.00000000  0.02631579       0.010
   0.05263158  0.00000000  0.05263158       0.010
   0.07894737  0.00000000  0.07894737       0.010
   0.10526316  0.00000000  0.10526316       0.010
   0.13157895  0.00000000  0.13157895       0.010
   0.15789474  0.00000000  0.15789474       0.010
   0.18421053  0.00000000  0.18421053       0.010
   0.21052632  0.00000000  0.21052632       0.010
   0.23684211  0.00000000  0.23684211       0.010
   0.26315789  0.00000000  0.26315789       0.010
   0.28947368  0.00000000  0.28947368       0.010
   0.31578947  0.00000000  0.31578947       0.010
   0.34210526  0.00000000  0.34210526       0.010
   0.36842105  0.00000000  0.36842105       0.010
   0.39473684  0.00000000  0.39473684       0.010
   0.42105263  0.00000000  0.42105263       0.010
   0.44736842  0.00000000  0.44736842       0.010
   0.47368421  0.00000000  0.47368421       0.010
   0.50000000  0.00000000  0.50000000       0.010
   0.50000000  0.00000000  0.50000000       0.010
   0.50000000  0.01315789  0.51315789       0.010
   0.50000000  0.02631579  0.52631579       0.010
   0.50000000  0.03947368  0.53947368       0.010
   0.50000000  0.05263158  0.55263158       0.010
   0.50000000  0.06578947  0.56578947       0.010
   0.50000000  0.07894737  0.57894737       0.010
   0.50000000  0.09210526  0.59210526       0.010
   0.50000000  0.10526316  0.60526316       0.010
   0.50000000  0.11842105  0.61842105       0.010
   0.50000000  0.13157895  0.63157895       0.010
   0.50000000  0.14473684  0.64473684       0.010
   0.50000000  0.15789474  0.65789474       0.010
   0.50000000  0.17105263  0.67105263       0.010
   0.50000000  0.18421053  0.68421053       0.010
   0.50000000  0.19736842  0.69736842       0.010
   0.50000000  0.21052632  0.71052632       0.010
   0.50000000  0.22368421  0.72368421       0.010
   0.50000000  0.23684211  0.73684211       0.010
   0.50000000  0.25000000  0.75000000       0.010
   0.50000000  0.25000000  0.75000000       0.010
   0.50000000  0.26315789  0.73684211       0.010
   0.50000000  0.27631579  0.72368421       0.010
   0.50000000  0.28947368  0.71052632       0.010
   0.50000000  0.30263158  0.69736842       0.010
   0.50000000  0.31578947  0.68421053       0.010
   0.50000000  0.32894737  0.67105263       0.010
   0.50000000  0.34210526  0.65789474       0.010
   0.50000000  0.35526316  0.64473684       0.010
   0.50000000  0.36842105  0.63157895       0.010
   0.50000000  0.38157895  0.61842105       0.010
   0.50000000  0.39473684  0.60526316       0.010
   0.50000000  0.40789474  0.59210526       0.010
   0.50000000  0.42105263  0.57894737       0.010
   0.50000000  0.43421053  0.56578947       0.010
   0.50000000  0.44736842  0.55263158       0.010
   0.50000000  0.46052632  0.53947368       0.010
   0.50000000  0.47368421  0.52631579       0.010
   0.50000000  0.48684211  0.51315789       0.010
   0.50000000  0.50000000  0.50000000       0.010
   0.50000000  0.50000000  0.50000000       0.010
   0.47368421  0.47368421  0.47368421       0.010
   0.44736842  0.44736842  0.44736842       0.010
   0.42105263  0.42105263  0.42105263       0.010
   0.39473684  0.39473684  0.39473684       0.010
   0.36842105  0.36842105  0.36842105       0.010
   0.34210526  0.34210526  0.34210526       0.010
   0.31578947  0.31578947  0.31578947       0.010
   0.28947368  0.28947368  0.28947368       0.010
   0.26315789  0.26315789  0.26315789       0.010
   0.23684211  0.23684211  0.23684211       0.010
   0.21052632  0.21052632  0.21052632       0.010
   0.18421053  0.18421053  0.18421053       0.010
   0.15789474  0.15789474  0.15789474       0.010
   0.13157895  0.13157895  0.13157895       0.010
   0.10526316  0.10526316  0.10526316       0.010
   0.07894737  0.07894737  0.07894737       0.010
   0.05263158  0.05263158  0.05263158       0.010
   0.02631579  0.02631579  0.02631579       0.010
   0.00000000  0.00000000  0.00000000       0.010
   0.00000000  0.00000000  0.00000000       0.010
   0.01973684  0.01973684  0.03947368       0.010
   0.03947368  0.03947368  0.07894737       0.010
   0.05921053  0.05921053  0.11842105       0.010
   0.07894737  0.07894737  0.15789474       0.010
   0.09868421  0.09868421  0.19736842       0.010
   0.11842105  0.11842105  0.23684211       0.010
   0.13815789  0.13815789  0.27631579       0.010
   0.15789474  0.15789474  0.31578947       0.010
   0.17763158  0.17763158  0.35526316       0.010
   0.19736842  0.19736842  0.39473684       0.010
   0.21710526  0.21710526  0.43421053       0.010
   0.23684211  0.23684211  0.47368421       0.010
   0.25657895  0.25657895  0.51315789       0.010
   0.27631579  0.27631579  0.55263158       0.010
   0.29605263  0.29605263  0.59210526       0.010
   0.31578947  0.31578947  0.63157895       0.010
   0.33552632  0.33552632  0.67105263       0.010
   0.35526316  0.35526316  0.71052632       0.010
   0.37500000  0.37500000  0.75000000       0.010
 
 position of ions in fractional coordinates (direct lattice) 
   0.00000000  0.00000000  0.00000000
   0.25000000  0.25000000  0.25000000
 
 position of ions in cartesian coordinates  (Angst):
   0.00000000  0.00000000  0.00000000
   1.51460000  1.51460000  1.51460000
 
 Euler angles ALPHA=     0.0000000  BETA=     0.0000000

 transformation matrix from SAXIS to cartesian coordinates
 ---------------------------------------------------------
     1.0000000 m_x     0.0000000 m_y     0.0000000 m_z
     0.0000000 m_x     1.0000000 m_y     0.0000000 m_z
     0.0000000 m_x     0.0000000 m_y     1.0000000 m_z

 transformation matrix from cartesian coordinates to SAXIS
 ---------------------------------------------------------
     1.0000000 m_x     0.0000000 m_y     0.0000000 m_z
     0.0000000 m_x     1.0000000 m_y     0.0000000 m_z
     0.0000000 m_x     0.0000000 m_y     1.0000000 m_z




--------------------------------------------------------------------------------------------------------


 k-point  1 :   0.0000 0.0000 0.0000  plane waves:    1290
 k-point  2 :   0.0263 0.0000 0.0263  plane waves:    1290
 k-point  3 :   0.0526 0.0000 0.0526  plane waves:    1274
 k-point  4 :   0.0789 0.0000 0.0789  plane waves:    1290
 k-point  5 :   0.1053 0.0000 0.1053  plane waves:    1314
 k-point  6 :   0.1316 0.0000 0.1316  plane waves:    1330
 k-point  7 :   0.1579 0.0000 0.1579  plane waves:    1314
 k-point  8 :   0.1842 0.0000 0.1842  plane waves:    1306
 k-point  9 :   0.2105 0.0000 0.2105  plane waves:    1298
 k-point 10 :   0.2368 0.0000 0.2368  plane waves:    1298
 k-point 11 :   0.2632 0.0000 0.2632  plane waves:    1298
 k-point 12 :   0.2895 0.0000 0.2895  plane waves:    1304
 k-point 13 :   0.3158 0.0000 0.3158  plane waves:    1288
 k-point 14 :   0.3421 0.0000 0.3421  plane waves:    1288
 k-point 15 :   0.3684 0.0000 0.3684  plane waves:    1304
 k-point 16 :   0.3947 0.0000 0.3947  plane waves:    1320
 k-point 17 :   0.4211 0.0000 0.4211  plane waves:    1320
 k-point 18 :   0.4474 0.0000 0.4474  plane waves:    1320
 k-point 19 :   0.4737 0.0000 0.4737  plane waves:    1312
 k-point 20 :   0.5000 0.0000 0.5000  plane waves:    1304
 k-point 21 :   0.5000 0.0000 0.5000  plane waves:    1304
 k-point 22 :   0.5000 0.0132 0.5132  plane waves:    1292
 k-point 23 :   0.5000 0.0263 0.5263  plane waves:    1292
 k-point 24 :   0.5000 0.0395 0.5395  plane waves:    1304
 k-point 25 :   0.5000 0.0526 0.5526  plane waves:    1308
 k-point 26 :   0.5000 0.0658 0.5658  plane waves:    1308
 k-point 27 :   0.5000 0.0789 0.5789  plane waves:    1324
 k-point 28 :   0.5000 0.0921 0.5921  plane waves:    1324
 k-point 29 :   0.5000 0.1053 0.6053  plane waves:    1324
 k-point 30 :   0.5000 0.1184 0.6184  plane waves:    1324
 k-point 31 :   0.5000 0.1316 0.6316  plane waves:    1324
 k-point 32 :   0.5000 0.1447 0.6447  plane waves:    1324
 k-point 33 :   0.5000 0.1579 0.6579  plane waves:    1316
 k-point 34 :   0.5000 0.1711 0.6711  plane waves:    1324
 k-point 35 :   0.5000 0.1842 0.6842  plane waves:    1332
 k-point 36 :   0.5000 0.1974 0.6974  plane waves:    1332
 k-point 37 :   0.5000 0.2105 0.7105  plane waves:    1332
 k-point 38 :   0.5000 0.2237 0.7237  plane waves:    1332
 k-point 39 :   0.5000 0.2368 0.7368  plane waves:    1324
 k-point 40 :   0.5000 0.2500 0.7500  plane waves:    1296
 k-point 41 :   0.5000 0.2500 0.7500  plane waves:    1296
 k-point 42 :   0.5000 0.2632 0.7368  plane waves:    1332
 k-point 43 :   0.5000 0.2763 0.7237  plane waves:    1332
 k-point 44 :   0.5000 0.2895 0.7105  plane waves:    1332
 k-point 45 :   0.5000 0.3026 0.6974  plane waves:    1332
 k-point 46 :   0.5000 0.3158 0.6842  plane waves:    1328
 k-point 47 :   0.5000 0.3289 0.6711  plane waves:    1320
 k-point 48 :   0.5000 0.3421 0.6579  plane waves:    1320
 k-point 49 :   0.5000 0.3553 0.6447  plane waves:    1324
 k-point 50 :   0.5000 0.3684 0.6316  plane waves:    1332
 k-point 51 :   0.5000 0.3816 0.6184  plane waves:    1332
 k-point 52 :   0.5000 0.3947 0.6053  plane waves:    1324
 k-point 53 :   0.5000 0.4079 0.5921  plane waves:    1320
 k-point 54 :   0.5000 0.4211 0.5789  plane waves:    1316
 k-point 55 :   0.5000 0.4342 0.5658  plane waves:    1312
 k-point 56 :   0.5000 0.4474 0.5526  plane waves:    1316
 k-point 57 :   0.5000 0.4605 0.5395  plane waves:    1304
 k-point 58 :   0.5000 0.4737 0.5263  plane waves:    1288
 k-point 59 :   0.5000 0.4868 0.5132  plane waves:    1300
 k-point 60 :   0.5000 0.5000 0.5000  plane waves:    1304
 k-point 61 :   0.5000 0.5000 0.5000  plane waves:    1304
 k-point 62 :   0.4737 0.4737 0.4737  plane waves:    1292
 k-point 63 :   0.4474 0.4474 0.4474  plane waves:    1292
 k-point 64 :   0.4211 0.4211 0.4211  plane waves:    1292
 k-point 65 :   0.3947 0.3947 0.3947  plane waves:    1316
 k-point 66 :   0.3684 0.3684 0.3684  plane waves:    1316
 k-point 67 :   0.3421 0.3421 0.3421  plane waves:    1304
 k-point 68 :   0.3158 0.3158 0.3158  plane waves:    1292
 k-point 69 :   0.2895 0.2895 0.2895  plane waves:    1280
 k-point 70 :   0.2632 0.2632 0.2632  plane waves:    1280
 k-point 71 :   0.2368 0.2368 0.2368  plane waves:    1292
 k-point 72 :   0.2105 0.2105 0.2105  plane waves:    1298
 k-point 73 :   0.1842 0.1842 0.1842  plane waves:    1292
 k-point 74 :   0.1579 0.1579 0.1579  plane waves:    1298
 k-point 75 :   0.1316 0.1316 0.1316  plane waves:    1298
 k-point 76 :   0.1053 0.1053 0.1053  plane waves:    1298
 k-point 77 :   0.0789 0.0789 0.0789  plane waves:    1280
 k-point 78 :   0.0526 0.0526 0.0526  plane waves:    1278
 k-point 79 :   0.0263 0.0263 0.0263  plane waves:    1290
 k-point 80 :   0.0000 0.0000 0.0000  plane waves:    1290
 k-point 81 :   0.0000 0.0000 0.0000  plane waves:    1290
 k-point 82 :   0.0197 0.0197 0.0395  plane waves:    1290
 k-point 83 :   0.0395 0.0395 0.0789  plane waves:    1288
 k-point 84 :   0.0592 0.0592 0.1184  plane waves:    1288
 k-point 85 :   0.0789 0.0789 0.1579  plane waves:    1300
 k-point 86 :   0.0987 0.0987 0.1974  plane waves:    1308
 k-point 87 :   0.1184 0.1184 0.2368  plane waves:    1308
 k-point 88 :   0.1382 0.1382 0.2763  plane waves:    1304
 k-point 89 :   0.1579 0.1579 0.3158  plane waves:    1288
 k-point 90 :   0.1776 0.1776 0.3553  plane waves:    1288
 k-point 91 :   0.1974 0.1974 0.3947  plane waves:    1296
 k-point 92 :   0.2171 0.2171 0.4342  plane waves:    1300
 k-point 93 :   0.2368 0.2368 0.4737  plane waves:    1316
 k-point 94 :   0.2566 0.2566 0.5132  plane waves:    1312
 k-point 95 :   0.2763 0.2763 0.5526  plane waves:    1324
 k-point 96 :   0.2961 0.2961 0.5921  plane waves:    1332
 k-point 97 :   0.3158 0.3158 0.6316  plane waves:    1332
 k-point 98 :   0.3355 0.3355 0.6711  plane waves:    1332
 k-point 99 :   0.3553 0.3553 0.7105  plane waves:    1340
 k-point ** :   0.3750 0.3750 0.7500  plane waves:    1340

 maximum and minimum number of plane-waves per node :      1340     1274

 maximum number of plane-waves:      1340
 maximum index in each direction: 
   IXMAX=    6   IYMAX=    6   IZMAX=    6
   IXMIN=   -6   IYMIN=   -6   IZMIN=   -6


 serial   3D FFT for wavefunctions
 parallel 3D FFT for charge:
    minimum data exchange during FFTs selected (reduces bandwidth)


 total amount of memory used by VASP MPI-rank0    52245. kBytes
=======================================================================

   base      :      30000. kBytes
   nonl-proj :      13999. kBytes
   fftplans  :        138. kBytes
   grid      :       1057. kBytes
   one-center:         64. kBytes
   wavefun   :       6987. kBytes
 
     INWAV:  cpu time    0.3109: real time    0.3114
 initial charge density was supplied:
 number of electron       8.0000011 magnetization      -0.0000000     -0.0000000     -0.0000000
 keeping initial charge density in first step


--------------------------------------------------------------------------------------------------------


 Maximum index for augmentation-charges          559 (set IRDMAX)


--------------------------------------------------------------------------------------------------------


 First call to EWALD:  gamma=   0.464
 Maximum number of real-space cells 3x 3x 3
 Maximum number of reciprocal cells 3x 3x 3

    FEWALD:  cpu time    0.0016: real time    0.0032


--------------------------------------- Iteration      1(   1)  ---------------------------------------


    POTLOK:  cpu time    0.0094: real time    0.0113
    SETDIJ:  cpu time    0.0102: real time    0.0103
    TRIAL :  cpu time    1.0783: real time    1.0917
    CORREC:  cpu time    0.0008: real time    0.0007
    --------------------------------------------
      LOOP:  cpu time    1.1091: real time    1.1275

 eigenvalue-minimisations  :     0
 total energy-change (2. order) : 0.5179506E+02  (-0.1563641E+02)
 number of electron       8.0000011 magnetization      -0.0000000     -0.0000000     -0.0000000
 augmentation part        8.0000011 magnetization      -0.0000000     -0.0000000     -0.0000000

 Free energy of the ion-electron system (eV)
  ---------------------------------------------------
  alpha Z        PSCENC =         6.67624893
  Ewald energy   TEWEN  =      -213.84743004
  -Hartree energ DENC   =       -28.14547200
  -exchange      EXHF   =         0.00000000
  -V(xc)+E(xc)   XCENC  =       -66.61381825
  PAW double counting   =       530.34016220     -452.74171738
  entropy T*S    EENTRO =         0.00003124
  eigenvalues    EBANDS =        52.15181631
  atomic energy  EATOM  =       223.97520926
  ---------------------------------------------------
  free energy    TOTEN  =        51.79505701 eV

  energy without entropy =       51.79502577  energy(sigma->0) =       51.79504660


--------------------------------------------------------------------------------------------------------




--------------------------------------- Iteration      1(   2)  ---------------------------------------


    TRIAL :  cpu time    1.0784: real time    1.0909
    CORREC:  cpu time    0.0007: real time    0.0007
    --------------------------------------------
      LOOP:  cpu time    1.0798: real time    1.0937

 eigenvalue-minimisations  :     0
 total energy-change (2. order) :-0.1269279E+02  (-0.1330154E+02)
 number of electron       8.0000011 magnetization      -0.0000000     -0.0000000     -0.0000000
 augmentation part        8.0000011 magnetization      -0.0000000     -0.0000000     -0.0000000

 Free energy of the ion-electron system (eV)
  ---------------------------------------------------
  alpha Z        PSCENC =         6.67624893
  Ewald energy   TEWEN  =      -213.84743004
  -Hartree energ DENC   =       -28.14547200
  -exchange      EXHF   =         0.00000000
  -V(xc)+E(xc)   XCENC  =       -66.61381825
  PAW double counting   =       530.34016220     -452.74171738
  entropy T*S    EENTRO =         0.00004107
  eigenvalues    EBANDS =        39.45905749
  atomic energy  EATOM  =       223.97520926
  ---------------------------------------------------
  free energy    TOTEN  =        39.10227145 eV

  energy without entropy =       39.10223038  energy(sigma->0) =       39.10225776


--------------------------------------------------------------------------------------------------------




--------------------------------------- Iteration      1(   3)  ---------------------------------------


    TRIAL :  cpu time    1.0698: real time    1.0827
    CORREC:  cpu time    0.0007: real time    0.0007
    --------------------------------------------
      LOOP:  cpu time    1.0713: real time    1.0853

 eigenvalue-minimisations  :     0
 total energy-change (2. order) :-0.1644236E+02  (-0.1780291E+02)
 number of electron       8.0000011 magnetization      -0.0000000     -0.0000000     -0.0000000
 augmentation part        8.0000011 magnetization      -0.0000000     -0.0000000     -0.0000000

 Free energy of the ion-electron system (eV)
  ---------------------------------------------------
  alpha Z        PSCENC =         6.67624893
  Ewald energy   TEWEN  =      -213.84743004
  -Hartree energ DENC   =       -28.14547200
  -exchange      EXHF   =         0.00000000
  -V(xc)+E(xc)   XCENC  =       -66.61381825
  PAW double counting   =       530.34016220     -452.74171738
  entropy T*S    EENTRO =        -0.00016651
  eigenvalues    EBANDS =        23.01668893
  atomic energy  EATOM  =       223.97520926
  ---------------------------------------------------
  free energy    TOTEN  =        22.65991273 eV

  energy without entropy =       22.66007924  energy(sigma->0) =       22.65996823


--------------------------------------------------------------------------------------------------------




--------------------------------------- Iteration      1(   4)  ---------------------------------------


    TRIAL :  cpu time    1.0654: real time    1.0779
    CORREC:  cpu time    0.0007: real time    0.0007
    --------------------------------------------
      LOOP:  cpu time    1.0663: real time    1.0788

 eigenvalue-minimisations  :     0
 total energy-change (2. order) :-0.1709257E+02  (-0.1046634E+02)
 number of electron       8.0000011 magnetization      -0.0000000     -0.0000000     -0.0000000
 augmentation part        8.0000011 magnetization      -0.0000000     -0.0000000     -0.0000000

 Free energy of the ion-electron system (eV)
  ---------------------------------------------------
  alpha Z        PSCENC =         6.67624893
  Ewald energy   TEWEN  =      -213.84743004
  -Hartree energ DENC   =       -28.14547200
  -exchange      EXHF   =         0.00000000
  -V(xc)+E(xc)   XCENC  =       -66.61381825
  PAW double counting   =       530.34016220     -452.74171738
  entropy T*S    EENTRO =         0.00004006
  eigenvalues    EBANDS =         5.92432996
  atomic energy  EATOM  =       223.97520926
  ---------------------------------------------------
  free energy    TOTEN  =         5.56734616 eV

  energy without entropy =        5.56730610  energy(sigma->0) =        5.56733281


--------------------------------------------------------------------------------------------------------




--------------------------------------- Iteration      1(   5)  ---------------------------------------


    TRIAL :  cpu time    1.0809: real time    1.0937
    CORREC:  cpu time    0.0008: real time    0.0008
    --------------------------------------------
      LOOP:  cpu time    1.0819: real time    1.0947

 eigenvalue-minimisations  :     0
 total energy-change (2. order) :-0.8385100E+01  (-0.4903738E+01)
 number of electron       8.0000011 magnetization      -0.0000000     -0.0000000     -0.0000000
 augmentation part        8.0000011 magnetization      -0.0000000     -0.0000000     -0.0000000

 Free energy of the ion-electron system (eV)
  ---------------------------------------------------
  alpha Z        PSCENC =         6.67624893
  Ewald energy   TEWEN  =      -213.84743004
  -Hartree energ DENC   =       -28.14547200
  -exchange      EXHF   =         0.00000000
  -V(xc)+E(xc)   XCENC  =       -66.61381825
  PAW double counting   =       530.34016220     -452.74171738
  entropy T*S    EENTRO =        -0.00017612
  eigenvalues    EBANDS =        -2.46097647
  atomic energy  EATOM  =       223.97520926
  ---------------------------------------------------
  free energy    TOTEN  =        -2.81775369 eV

  energy without entropy =       -2.81757757  energy(sigma->0) =       -2.81769498


--------------------------------------------------------------------------------------------------------




--------------------------------------- Iteration      1(   6)  ---------------------------------------


    TRIAL :  cpu time    1.0707: real time    1.0831
    CORREC:  cpu time    0.0007: real time    0.0007
    --------------------------------------------
      LOOP:  cpu time    1.0723: real time    1.0858

 eigenvalue-minimisations  :     0
 total energy-change (2. order) :-0.4616058E+01  (-0.2280887E+01)
 number of electron       8.0000011 magnetization      -0.0000000     -0.0000000     -0.0000000
 augmentation part        8.0000011 magnetization      -0.0000000     -0.0000000     -0.0000000

 Free energy of the ion-electron system (eV)
  ---------------------------------------------------
  alpha Z        PSCENC =         6.67624893
  Ewald energy   TEWEN  =      -213.84743004
  -Hartree energ DENC   =       -28.14547200
  -exchange      EXHF   =         0.00000000
  -V(xc)+E(xc)   XCENC  =       -66.61381825
  PAW double counting   =       530.34016220     -452.74171738
  entropy T*S    EENTRO =        -0.00012805
  eigenvalues    EBANDS =        -7.07681779
  atomic energy  EATOM  =       223.97520926
  ---------------------------------------------------
  free energy    TOTEN  =        -7.43381119 eV

  energy without entropy =       -7.43368314  energy(sigma->0) =       -7.43376850


--------------------------------------------------------------------------------------------------------




--------------------------------------- Iteration      1(   7)  ---------------------------------------


    TRIAL :  cpu time    1.0649: real time    1.0773
    CORREC:  cpu time    0.0007: real time    0.0007
    --------------------------------------------
      LOOP:  cpu time    1.0658: real time    1.0781

 eigenvalue-minimisations  :     0
 total energy-change (2. order) :-0.1925561E+01  (-0.9646298E+00)
 number of electron       8.0000011 magnetization      -0.0000000     -0.0000000     -0.0000000
 augmentation part        8.0000011 magnetization      -0.0000000     -0.0000000     -0.0000000

 Free energy of the ion-electron system (eV)
  ---------------------------------------------------
  alpha Z        PSCENC =         6.67624893
  Ewald energy   TEWEN  =      -213.84743004
  -Hartree energ DENC   =       -28.14547200
  -exchange      EXHF   =         0.00000000
  -V(xc)+E(xc)   XCENC  =       -66.61381825
  PAW double counting   =       530.34016220     -452.74171738
  entropy T*S    EENTRO =        -0.00016633
  eigenvalues    EBANDS =        -9.00242668
  atomic energy  EATOM  =       223.97520926
  ---------------------------------------------------
  free energy    TOTEN  =        -9.35937201 eV

  energy without entropy =       -9.35920568  energy(sigma->0) =       -9.35931657


--------------------------------------------------------------------------------------------------------




--------------------------------------- Iteration      1(   8)  ---------------------------------------


    TRIAL :  cpu time    1.0633: real time    1.0756
    CORREC:  cpu time    0.0007: real time    0.0007
    --------------------------------------------
      LOOP:  cpu time    1.0642: real time    1.0765

 eigenvalue-minimisations  :     0
 total energy-change (2. order) :-0.7992681E+00  (-0.4293773E+00)
 number of electron       8.0000011 magnetization      -0.0000000     -0.0000000     -0.0000000
 augmentation part        8.0000011 magnetization      -0.0000000     -0.0000000     -0.0000000

 Free energy of the ion-electron system (eV)
  ---------------------------------------------------
  alpha Z        PSCENC =         6.67624893
  Ewald energy   TEWEN  =      -213.84743004
  -Hartree energ DENC   =       -28.14547200
  -exchange      EXHF   =         0.00000000
  -V(xc)+E(xc)   XCENC  =       -66.61381825
  PAW double counting   =       530.34016220     -452.74171738
  entropy T*S    EENTRO =        -0.00023445
  eigenvalues    EBANDS =        -9.80165654
  atomic energy  EATOM  =       223.97520926
  ---------------------------------------------------
  free energy    TOTEN  =       -10.15864015 eV

  energy without entropy =      -10.15840570  energy(sigma->0) =      -10.15856200


--------------------------------------------------------------------------------------------------------




--------------------------------------- Iteration      1(   9)  ---------------------------------------


    TRIAL :  cpu time    1.0641: real time    1.0765
    CORREC:  cpu time    0.0007: real time    0.0007
    --------------------------------------------
      LOOP:  cpu time    1.0650: real time    1.0774

 eigenvalue-minimisations  :     0
 total energy-change (2. order) :-0.3614551E+00  (-0.1953663E+00)
 number of electron       8.0000011 magnetization      -0.0000000     -0.0000000     -0.0000000
 augmentation part        8.0000011 magnetization      -0.0000000     -0.0000000     -0.0000000

 Free energy of the ion-electron system (eV)
  ---------------------------------------------------
  alpha Z        PSCENC =         6.67624893
  Ewald energy   TEWEN  =      -213.84743004
  -Hartree energ DENC   =       -28.14547200
  -exchange      EXHF   =         0.00000000
  -V(xc)+E(xc)   XCENC  =       -66.61381825
  PAW double counting   =       530.34016220     -452.74171738
  entropy T*S    EENTRO =         0.00023966
  eigenvalues    EBANDS =       -10.16304353
  atomic energy  EATOM  =       223.97520926
  ---------------------------------------------------
  free energy    TOTEN  =       -10.52009526 eV

  energy without entropy =      -10.52033492  energy(sigma->0) =      -10.52017515


--------------------------------------------------------------------------------------------------------




--------------------------------------- Iteration      1(  10)  ---------------------------------------


    TRIAL :  cpu time    1.0784: real time    1.0910
    CORREC:  cpu time    0.0008: real time    0.0008
    --------------------------------------------
      LOOP:  cpu time    1.0793: real time    1.0919

 eigenvalue-minimisations  :     0
 total energy-change (2. order) :-0.1597520E+00  (-0.7813291E-01)
 number of electron       8.0000011 magnetization      -0.0000000     -0.0000000     -0.0000000
 augmentation part        8.0000011 magnetization      -0.0000000     -0.0000000     -0.0000000

 Free energy of the ion-electron system (eV)
  ---------------------------------------------------
  alpha Z        PSCENC =         6.67624893
  Ewald energy   TEWEN  =      -213.84743004
  -Hartree energ DENC   =       -28.14547200
  -exchange      EXHF   =         0.00000000
  -V(xc)+E(xc)   XCENC  =       -66.61381825
  PAW double counting   =       530.34016220     -452.74171738
  entropy T*S    EENTRO =         0.00023868
  eigenvalues    EBANDS =       -10.32326966
  atomic energy  EATOM  =       223.97520926
  ---------------------------------------------------
  free energy    TOTEN  =       -10.67984728 eV

  energy without entropy =      -10.68008596  energy(sigma->0) =      -10.67992684


--------------------------------------------------------------------------------------------------------




--------------------------------------- Iteration      1(  11)  ---------------------------------------


    TRIAL :  cpu time    1.0715: real time    1.0845
    CORREC:  cpu time    0.0007: real time    0.0007
    --------------------------------------------
      LOOP:  cpu time    1.0731: real time    1.0882

 eigenvalue-minimisations  :     0
 total energy-change (2. order) :-0.6396527E-01  (-0.3079856E-01)
 number of electron       8.0000011 magnetization      -0.0000000     -0.0000000     -0.0000000
 augmentation part        8.0000011 magnetization      -0.0000000     -0.0000000     -0.0000000

 Free energy of the ion-electron system (eV)
  ---------------------------------------------------
  alpha Z        PSCENC =         6.67624893
  Ewald energy   TEWEN  =      -213.84743004
  -Hartree energ DENC   =       -28.14547200
  -exchange      EXHF   =         0.00000000
  -V(xc)+E(xc)   XCENC  =       -66.61381825
  PAW double counting   =       530.34016220     -452.74171738
  entropy T*S    EENTRO =         0.00028925
  eigenvalues    EBANDS =       -10.38723395
  atomic energy  EATOM  =       223.97520926
  ---------------------------------------------------
  free energy    TOTEN  =       -10.74381255 eV

  energy without entropy =      -10.74410180  energy(sigma->0) =      -10.74390897


--------------------------------------------------------------------------------------------------------




--------------------------------------- Iteration      1(  12)  ---------------------------------------


    TRIAL :  cpu time    1.0644: real time    1.0768
    CORREC:  cpu time    0.0007: real time    0.0007
    --------------------------------------------
      LOOP:  cpu time    1.0666: real time    1.0795

 eigenvalue-minimisations  :     0
 total energy-change (2. order) :-0.2492458E-01  (-0.1158192E-01)
 number of electron       8.0000011 magnetization      -0.0000000     -0.0000000     -0.0000000
 augmentation part        8.0000011 magnetization      -0.0000000     -0.0000000     -0.0000000

 Free energy of the ion-electron system (eV)
  ---------------------------------------------------
  alpha Z        PSCENC =         6.67624893
  Ewald energy   TEWEN  =      -213.84743004
  -Hartree energ DENC   =       -28.14547200
  -exchange      EXHF   =         0.00000000
  -V(xc)+E(xc)   XCENC  =       -66.61381825
  PAW double counting   =       530.34016220     -452.74171738
  entropy T*S    EENTRO =         0.00032728
  eigenvalues    EBANDS =       -10.41220910
  atomic energy  EATOM  =       223.97520926
  ---------------------------------------------------
  free energy    TOTEN  =       -10.76873713 eV

  energy without entropy =      -10.76906441  energy(sigma->0) =      -10.76884622


--------------------------------------------------------------------------------------------------------




--------------------------------------- Iteration      1(  13)  ---------------------------------------


    TRIAL :  cpu time    1.0648: real time    1.0773
    CORREC:  cpu time    0.0007: real time    0.0007
    --------------------------------------------
      LOOP:  cpu time    1.0657: real time    1.0782

 eigenvalue-minimisations  :     0
 total energy-change (2. order) :-0.9197772E-02  (-0.4039002E-02)
 number of electron       8.0000011 magnetization      -0.0000000     -0.0000000     -0.0000000
 augmentation part        8.0000011 magnetization      -0.0000000     -0.0000000     -0.0000000

 Free energy of the ion-electron system (eV)
  ---------------------------------------------------
  alpha Z        PSCENC =         6.67624893
  Ewald energy   TEWEN  =      -213.84743004
  -Hartree energ DENC   =       -28.14547200
  -exchange      EXHF   =         0.00000000
  -V(xc)+E(xc)   XCENC  =       -66.61381825
  PAW double counting   =       530.34016220     -452.74171738
  entropy T*S    EENTRO =         0.00035290
  eigenvalues    EBANDS =       -10.42144491
  atomic energy  EATOM  =       223.97520926
  ---------------------------------------------------
  free energy    TOTEN  =       -10.77793490 eV

  energy without entropy =      -10.77828780  energy(sigma->0) =      -10.77805254


--------------------------------------------------------------------------------------------------------




--------------------------------------- Iteration      1(  14)  ---------------------------------------


    TRIAL :  cpu time    1.0653: real time    1.0778
    CORREC:  cpu time    0.0007: real time    0.0007
    --------------------------------------------
      LOOP:  cpu time    1.0662: real time    1.0787

 eigenvalue-minimisations  :     0
 total energy-change (2. order) :-0.3154827E-02  (-0.1325268E-02)
 number of electron       8.0000011 magnetization      -0.0000000     -0.0000000     -0.0000000
 augmentation part        8.0000011 magnetization      -0.0000000     -0.0000000     -0.0000000

 Free energy of the ion-electron system (eV)
  ---------------------------------------------------
  alpha Z        PSCENC =         6.67624893
  Ewald energy   TEWEN  =      -213.84743004
  -Hartree energ DENC   =       -28.14547200
  -exchange      EXHF   =         0.00000000
  -V(xc)+E(xc)   XCENC  =       -66.61381825
  PAW double counting   =       530.34016220     -452.74171738
  entropy T*S    EENTRO =         0.00035050
  eigenvalues    EBANDS =       -10.42462535
  atomic energy  EATOM  =       223.97520926
  ---------------------------------------------------
  free energy    TOTEN  =       -10.78108973 eV

  energy without entropy =      -10.78144023  energy(sigma->0) =      -10.78120656


--------------------------------------------------------------------------------------------------------




--------------------------------------- Iteration      1(  15)  ---------------------------------------


    TRIAL :  cpu time    1.0642: real time    1.0767
    CORREC:  cpu time    0.0007: real time    0.0007
    --------------------------------------------
      LOOP:  cpu time    1.0651: real time    1.0776

 eigenvalue-minimisations  :     0
 total energy-change (2. order) :-0.1023174E-02  (-0.4091269E-03)
 number of electron       8.0000011 magnetization      -0.0000000     -0.0000000     -0.0000000
 augmentation part        8.0000011 magnetization      -0.0000000     -0.0000000     -0.0000000

 Free energy of the ion-electron system (eV)
  ---------------------------------------------------
  alpha Z        PSCENC =         6.67624893
  Ewald energy   TEWEN  =      -213.84743004
  -Hartree energ DENC   =       -28.14547200
  -exchange      EXHF   =         0.00000000
  -V(xc)+E(xc)   XCENC  =       -66.61381825
  PAW double counting   =       530.34016220     -452.74171738
  entropy T*S    EENTRO =         0.00034513
  eigenvalues    EBANDS =       -10.42564612
  atomic energy  EATOM  =       223.97520926
  ---------------------------------------------------
  free energy    TOTEN  =       -10.78211290 eV

  energy without entropy =      -10.78245804  energy(sigma->0) =      -10.78222795


--------------------------------------------------------------------------------------------------------




--------------------------------------- Iteration      1(  16)  ---------------------------------------


    TRIAL :  cpu time    1.0643: real time    1.0768
    CORREC:  cpu time    0.0007: real time    0.0007
    --------------------------------------------
      LOOP:  cpu time    1.0652: real time    1.0776

 eigenvalue-minimisations  :     0
 total energy-change (2. order) :-0.3096700E-03  (-0.1160945E-03)
 number of electron       8.0000011 magnetization      -0.0000000     -0.0000000     -0.0000000
 augmentation part        8.0000011 magnetization      -0.0000000     -0.0000000     -0.0000000

 Free energy of the ion-electron system (eV)
  ---------------------------------------------------
  alpha Z        PSCENC =         6.67624893
  Ewald energy   TEWEN  =      -213.84743004
  -Hartree energ DENC   =       -28.14547200
  -exchange      EXHF   =         0.00000000
  -V(xc)+E(xc)   XCENC  =       -66.61381825
  PAW double counting   =       530.34016220     -452.74171738
  entropy T*S    EENTRO =         0.00034252
  eigenvalues    EBANDS =       -10.42595043
  atomic energy  EATOM  =       223.97520926
  ---------------------------------------------------
  free energy    TOTEN  =       -10.78242257 eV

  energy without entropy =      -10.78276510  energy(sigma->0) =      -10.78253675


--------------------------------------------------------------------------------------------------------




--------------------------------------- Iteration      1(  17)  ---------------------------------------


    TRIAL :  cpu time    1.0650: real time    1.0773
    CORREC:  cpu time    0.0007: real time    0.0007
    EDDIAG:  cpu time    0.7060: real time    0.7271
    --------------------------------------------
      LOOP:  cpu time    1.7719: real time    1.8052

 eigenvalue-minimisations  :     0
 total energy-change (2. order) :-0.8551636E-04  (-0.2956464E-04)
 number of electron       8.0000011 magnetization      -0.0000000     -0.0000000     -0.0000000
 augmentation part        8.0000011 magnetization      -0.0000000     -0.0000000     -0.0000000

 Free energy of the ion-electron system (eV)
  ---------------------------------------------------
  alpha Z        PSCENC =         6.67624893
  Ewald energy   TEWEN  =      -213.84743004
  -Hartree energ DENC   =       -28.14547200
  -exchange      EXHF   =         0.00000000
  -V(xc)+E(xc)   XCENC  =       -66.61381825
  PAW double counting   =       530.34016220     -452.74171738
  entropy T*S    EENTRO =         0.00034154
  eigenvalues    EBANDS =       -10.42603333
  atomic energy  EATOM  =       223.97520926
  ---------------------------------------------------
  free energy    TOTEN  =       -10.78250809 eV

  energy without entropy =      -10.78284963  energy(sigma->0) =      -10.78262194


--------------------------------------------------------------------------------------------------------


  average scaling for gradient   1.2848


 average (electrostatic) potential at core
  the test charge radii are     1.4837  1.0621
  (the norm of the test charge is              1.0000)
       1 -39.4636       2 -49.6482
 
 
 
 E-fermi :   2.9660     XC(G=0):  -8.7722     alpha+bet : -8.8632


 k-point     1 :       0.0000    0.0000    0.0000
  band No.  band energies     occupation 
      1      -8.1718      1.00000
      2      -8.1718      1.00000
      3       2.6532      1.00000
      4       2.6532      1.00000
      5       2.9273      0.98339
      6       2.9273      0.98339
      7       2.9273      0.98338
      8       2.9273      0.98338
      9       3.2487     -0.00000
     10       3.2487     -0.00000
     11       7.2477      0.00000
     12       7.2477      0.00000
     13       7.7457      0.00000
     14       7.7457      0.00000
     15       7.7457      0.00000
     16       7.7457      0.00000
     17      10.7428      0.00000
     18      10.7428      0.00000
     19      12.8609      0.00000
     20      12.8609      0.00000
     21      12.8609      0.00000
     22      12.8609      0.00000
     23      13.6109      0.00000
     24      13.6109      0.00000
     25      13.6416      0.00000
     26      13.6416      0.00000
     27      13.6416      0.00000
     28      13.6416      0.00000
     29      16.1843      0.00000
     30      16.1843      0.00000
     31      24.4108      0.00000
     32      24.4108      0.00000
     33      24.4108      0.00000
     34      24.4108      0.00000
     35      24.5611      0.00000
     36      24.5611      0.00000
     37      25.7736      0.00000
     38      25.7736      0.00000
     39      25.7942      0.00000
     40      25.7942      0.00000
     41      25.7942      0.00000
     42      25.7942      0.00000
     43      25.8877      0.00000
     44      25.8877      0.00000
     45      25.8878      0.00000
     46      25.8878      0.00000
     47      25.8878      0.00000
     48      25.8878      0.00000
     49      26.2328      0.00000
     50      26.2328      0.00000
     51      26.2328      0.00000
     52      26.2328      0.00000
     53      33.4009      0.00000
     54      33.4703      0.00000
     55      33.5318      0.00000
     56      33.8095      0.00000

 k-point     2 :       0.0263    0.0000    0.0263
  band No.  band energies     occupation 
      1      -8.1630      1.00000
      2      -8.1630      1.00000
      3       2.5395      1.00000
      4       2.5395      1.00000
      5       2.7843      1.00000
      6       2.7843      1.00000
      7       2.9036      1.03539
      8       2.9036      1.03539
      9       3.4833     -0.00000
     10       3.4833     -0.00000
     11       7.2542      0.00000
     12       7.2542      0.00000
     13       7.7242      0.00000
     14       7.7242      0.00000
     15       7.7757      0.00000
     16       7.7757      0.00000
     17      10.8137      0.00000
     18      10.8137      0.00000
     19      12.6176      0.00000
     20      12.6176      0.00000
     21      12.8702      0.00000
     22      12.8702      0.00000
     23      13.6403      0.00000
     24      13.6403      0.00000
     25      13.6600      0.00000
     26      13.6600      0.00000
     27      13.8338      0.00000
     28      13.8338      0.00000
     29      16.2789      0.00000
     30      16.2789      0.00000
     31      24.1689      0.00000
     32      24.1690      0.00000
     33      24.2806      0.00000
     34      24.2808      0.00000
     35      24.4782      0.00000
     36      24.4801      0.00000
     37      25.1787      0.00000
     38      25.1787      0.00000
     39      25.5602      0.00000
     40      25.5603      0.00000
     41      25.7016      0.00000
     42      25.7017      0.00000
     43      25.8508      0.00000
     44      25.8509      0.00000
     45      26.1689      0.00000
     46      26.1702      0.00000
     47      26.4491      0.00000
     48      26.4523      0.00000
     49      26.4940      0.00000
     50      26.4943      0.00000
     51      26.5351      0.00000
     52      26.5357      0.00000
     53      33.5133      0.00000
     54      33.6478      0.00000
     55      33.6571      0.00000
     56      34.6307      0.00000

 k-point     3 :       0.0526    0.0000    0.0526
  band No.  band energies     occupation 
      1      -8.1364      1.00000
      2      -8.1364      1.00000
      3       2.2243      1.00000
      4       2.2243      1.00000
      5       2.6811      1.00000
      6       2.6811      1.00000
      7       2.8352      1.00069
      8       2.8352      1.00070
      9       3.8367     -0.00000
     10       3.8367     -0.00000
     11       7.2387      0.00000
     12       7.2387      0.00000
     13       7.7046      0.00000
     14       7.7046      0.00000
     15       7.8640      0.00000
     16       7.8640      0.00000
     17      11.0127      0.00000
     18      11.0127      0.00000
     19      12.1763      0.00000
     20      12.1763      0.00000
     21      12.8930      0.00000
     22      12.8930      0.00000
     23      13.7037      0.00000
     24      13.7037      0.00000
     25      13.7248      0.00000
     26      13.7248      0.00000
     27      14.1467      0.00000
     28      14.1467      0.00000
     29      16.5593      0.00000
     30      16.5593      0.00000
     31      23.6728      0.00000
     32      23.6730      0.00000
     33      23.8431      0.00000
     34      23.8437      0.00000
     35      24.3231      0.00000
     36      24.3261      0.00000
     37      24.5590      0.00000
     38      24.5594      0.00000
     39      25.3382      0.00000
     40      25.3576      0.00000
     41      25.6861      0.00000
     42      25.7154      0.00000
     43      25.9527      0.00000
     44      26.0059      0.00000
     45      26.5697      0.00000
     46      26.9086      0.00000
     47      27.0542      0.00000
     48      27.1074      0.00000
     49      30.4512      0.00000
     50      31.4098      0.00000
     51      32.4873      0.00000
     52      33.2023      0.00000
     53      33.3481      0.00000
     54      33.3505      0.00000
     55      35.2332      0.00000
     56      35.9004      0.00000

 k-point     4 :       0.0789    0.0000    0.0789
  band No.  band energies     occupation 
      1      -8.0924      1.00000
      2      -8.0924      1.00000
      3       1.8604      1.00000
      4       1.8604      1.00000
      5       2.5784      1.00000
      6       2.5784      1.00000
      7       2.7285      1.00000
      8       2.7285      1.00000
      9       4.1969     -0.00000
     10       4.1969     -0.00000
     11       7.1340      0.00000
     12       7.1340      0.00000
     13       7.7750      0.00000
     14       7.7750      0.00000
     15       8.0055      0.00000
     16       8.0055      0.00000
     17      11.2994      0.00000
     18      11.2994      0.00000
     19      11.7226      0.00000
     20      11.7226      0.00000
     21      12.9310      0.00000
     22      12.9310      0.00000
     23      13.8084      0.00000
     24      13.8084      0.00000
     25      13.8325      0.00000
     26      13.8325      0.00000
     27      14.4227      0.00000
     28      14.4227      0.00000
     29      17.0063      0.00000
     30      17.0063      0.00000
     31      23.0956      0.00000
     32      23.0963      0.00000
     33      23.2821      0.00000
     34      23.2824      0.00000
     35      23.8504      0.00000
     36      23.8504      0.00000
     37      24.1440      0.00000
     38      24.1458      0.00000
     39      25.1844      0.00000
     40      25.2260      0.00000
     41      25.7123      0.00000
     42      25.7323      0.00000
     43      25.9803      0.00000
     44      26.0761      0.00000
     45      26.9045      0.00000
     46      27.4448      0.00000
     47      27.5946      0.00000
     48      27.6188      0.00000
     49      31.1754      0.00000
     50      31.7825      0.00000
     51      32.4681      0.00000
     52      33.6703      0.00000
     53      34.0429      0.00000
     54      34.1137      0.00000
     55      35.1326      0.00000
     56      35.6824      0.00000

 k-point     5 :       0.1053    0.0000    0.1053
  band No.  band energies     occupation 
      1      -8.0311      1.00000
      2      -8.0311      1.00000
      3       1.4881      1.00000
      4       1.4881      1.00000
      5       2.4543      1.00000
      6       2.4543      1.00000
      7       2.5923      1.00000
      8       2.5923      1.00000
      9       4.5475      0.00000
     10       4.5475      0.00000
     11       6.9530      0.00000
     12       6.9530      0.00000
     13       7.9407      0.00000
     14       7.9407      0.00000
     15       8.1934      0.00000
     16       8.1934      0.00000
     17      11.2180      0.00000
     18      11.2180      0.00000
     19      11.7296      0.00000
     20      11.7296      0.00000
     21      12.9840      0.00000
     22      12.9840      0.00000
     23      13.9547      0.00000
     24      13.9547      0.00000
     25      13.9829      0.00000
     26      13.9829      0.00000
     27      14.6576      0.00000
     28      14.6576      0.00000
     29      17.5826      0.00000
     30      17.5826      0.00000
     31      22.5676      0.00000
     32      22.5699      0.00000
     33      22.8003      0.00000
     34      22.8153      0.00000
     35      23.7966      0.00000
     36      23.8651      0.00000
     37      24.3950      0.00000
     38      24.6185      0.00000
     39      25.1867      0.00000
     40      25.2982      0.00000
     41      26.2804      0.00000
     42      26.3908      0.00000
     43      26.4095      0.00000
     44      26.4213      0.00000
     45      27.6848      0.00000
     46      28.0162      0.00000
     47      28.5286      0.00000
     48      28.5697      0.00000
     49      28.8866      0.00000
     50      29.3803      0.00000
     51      29.3991      0.00000
     52      30.4701      0.00000
     53      34.8067      0.00000
     54      35.3013      0.00000
     55      35.9170      0.00000
     56      36.3773      0.00000

 k-point     6 :       0.1316    0.0000    0.1316
  band No.  band energies     occupation 
      1      -7.9529      1.00000
      2      -7.9529      1.00000
      3       1.1149      1.00000
      4       1.1149      1.00000
      5       2.3122      1.00000
      6       2.3122      1.00000
      7       2.4358      1.00000
      8       2.4358      1.00000
      9       4.8771      0.00000
     10       4.8771      0.00000
     11       6.7423      0.00000
     12       6.7423      0.00000
     13       8.1668      0.00000
     14       8.1668      0.00000
     15       8.4203      0.00000
     16       8.4203      0.00000
     17      10.8183      0.00000
     18      10.8183      0.00000
     19      12.1489      0.00000
     20      12.1489      0.00000
     21      13.0522      0.00000
     22      13.0522      0.00000
     23      14.1424      0.00000
     24      14.1424      0.00000
     25      14.1752      0.00000
     26      14.1752      0.00000
     27      14.8739      0.00000
     28      14.8739      0.00000
     29      18.2484      0.00000
     30      18.2484      0.00000
     31      21.8832      0.00000
     32      21.8832      0.00000
[...]
  0.000   0.000   0.000   0.000  -0.000   0.000   4.263  -0.000  -0.000   0.000  -0.000   0.000   7.244  -0.000  -0.000   0.000
  0.000   0.000   0.000   0.000  -0.000  -0.098  -0.000  -0.000   4.263  -0.000  -0.000  -0.172  -0.000  -0.000   7.244  -0.000
  0.000   0.000   0.000   0.000   7.244  -0.000  -0.000  -0.000  -0.000   0.172  12.405  -0.000  -0.000  -0.000  -0.000   0.301
  0.000   0.000   0.000   0.000  -0.000   0.000   7.244  -0.000  -0.000   0.000  -0.000   0.000  12.405  -0.000  -0.000   0.000
  0.000   0.000   0.000   0.000  -0.000  -0.172  -0.000  -0.000   7.244  -0.000  -0.000  -0.301  -0.000  -0.000  12.405  -0.000
 -0.000   0.000  -0.000   0.000   0.000   0.000   0.004   0.000   0.000   0.000   0.000   0.000   0.005   0.000   0.000   0.000
 -0.000   0.000  -0.000   0.000   0.000   0.000   0.000   0.000   0.004   0.000   0.000   0.000   0.000   0.000   0.005   0.000
  0.000   0.000   0.000   0.000  -0.000   0.000   0.000   0.000  -0.000   0.000  -0.000   0.000   0.000   0.000  -0.000   0.000
 -0.000   0.000  -0.000   0.000   0.004   0.000   0.000   0.000   0.000   0.000   0.005   0.000   0.000   0.000   0.000   0.000
  0.000   0.000   0.000   0.000  -0.000   0.000   0.000   0.000   0.000   0.000  -0.000   0.000   0.000   0.000   0.000   0.000
 pseudopotential strength for first ion, spin component:           2
  0.000  -0.000   0.000  -0.000   0.000   0.000   0.000   0.000   0.000  -0.000   0.000   0.000   0.000   0.000   0.000  -0.000
  0.000  -0.000   0.000  -0.000   0.000   0.000   0.000   0.000   0.000  -0.000   0.000   0.000   0.000   0.000   0.000  -0.000
  0.000   0.000   0.000   0.000  -0.000  -0.000  -0.000  -0.098   0.000   0.000  -0.000  -0.000  -0.000  -0.172   0.000   0.000
  0.000   0.000   0.000   0.000  -0.000   0.098   0.000  -0.000  -0.098  -0.000  -0.000   0.172   0.000  -0.000  -0.172  -0.000
  0.000  -0.000   0.000  -0.000   0.000   0.000   0.098  -0.000  -0.000  -0.000   0.000   0.000   0.172  -0.000  -0.000  -0.000
  0.000   0.000   0.000   0.000  -0.000  -0.000  -0.000  -0.172   0.000   0.000  -0.000  -0.000  -0.000  -0.301   0.000   0.000
  0.000   0.000   0.000   0.000  -0.000   0.172   0.000  -0.000  -0.172  -0.000  -0.000   0.301   0.000  -0.000  -0.301  -0.000
  0.000  -0.000   0.000  -0.000   0.000   0.000   0.172  -0.000  -0.000  -0.000   0.000   0.000   0.301  -0.000  -0.000  -0.000
  0.000   0.000   0.000   0.000   0.000  -0.000   0.000  -0.000   0.000   0.000   0.000  -0.000   0.000  -0.000   0.000   0.000
 -0.000  -0.000  -0.000  -0.000  -0.000   0.000   0.000  -0.000   0.000  -0.000  -0.000   0.000   0.000  -0.000   0.000  -0.000
  0.000   0.000   0.000   0.000  -0.000  -0.000   0.000   0.000  -0.000   0.000  -0.000  -0.000   0.000   0.000  -0.000   0.000
  0.000  -0.000   0.000  -0.000   0.000  -0.000  -0.000   0.000   0.000  -0.000   0.000  -0.000  -0.000   0.000   0.000  -0.000
 -0.000  -0.000  -0.000  -0.000  -0.000   0.000   0.000  -0.000  -0.000  -0.000  -0.000   0.000   0.000  -0.000  -0.000  -0.000
 pseudopotential strength for first ion, spin component:           3
  0.000   0.000   0.000   0.000   0.000  -0.000   0.000  -0.000   0.000   0.000   0.000  -0.000   0.000  -0.000   0.000   0.000
  0.000   0.000   0.000   0.000   0.000  -0.000   0.000  -0.000   0.000   0.000   0.000  -0.000   0.000  -0.000   0.000   0.000
  0.000  -0.000   0.000  -0.000  -0.000   0.000  -0.000  -0.098   0.000  -0.000  -0.000   0.000  -0.000  -0.172   0.000  -0.000
  0.000  -0.000   0.000  -0.000  -0.000   0.098   0.000   0.000   0.098   0.000  -0.000   0.172   0.000   0.000   0.172   0.000
  0.000   0.000   0.000   0.000   0.000  -0.000  -0.098   0.000  -0.000   0.000   0.000  -0.000  -0.172   0.000  -0.000   0.000
  0.000  -0.000   0.000  -0.000  -0.000   0.000  -0.000  -0.172   0.000  -0.000  -0.000   0.000  -0.000  -0.301   0.000  -0.000
  0.000  -0.000   0.000  -0.000  -0.000   0.172   0.000   0.000   0.172   0.000  -0.000   0.301   0.000   0.000   0.301   0.000
  0.000   0.000   0.000   0.000   0.000  -0.000  -0.172   0.000  -0.000   0.000   0.000  -0.000  -0.301   0.000  -0.000   0.000
  0.000  -0.000   0.000  -0.000   0.000   0.000   0.000   0.000   0.000  -0.000   0.000   0.000   0.000   0.000   0.000  -0.000
 -0.000   0.000  -0.000   0.000  -0.000  -0.000   0.000   0.000   0.000   0.000  -0.000  -0.000   0.000   0.000   0.000   0.000
  0.000  -0.000   0.000  -0.000  -0.000   0.000   0.000  -0.000  -0.000  -0.000  -0.000   0.000   0.000  -0.000  -0.000  -0.000
  0.000   0.000   0.000   0.000   0.000   0.000  -0.000  -0.000   0.000   0.000   0.000   0.000  -0.000  -0.000   0.000   0.000
 -0.000   0.000  -0.000   0.000  -0.000  -0.000   0.000   0.000  -0.000   0.000  -0.000  -0.000   0.000   0.000  -0.000   0.000
 pseudopotential strength for first ion, spin component:           4
 21.577   0.000  25.815   0.000   0.000   0.000   0.000   0.000   0.000   0.000   0.000   0.000   0.000   0.000   0.000   0.000
 25.815   0.000  30.898   0.000   0.000   0.000   0.000   0.000   0.000   0.000   0.000   0.000   0.000   0.000   0.000   0.000
  0.000   0.000   0.000   0.000   4.263  -0.000  -0.000  -0.000  -0.000  -0.098   7.244  -0.000  -0.000  -0.000  -0.000  -0.172
  0.000   0.000   0.000   0.000  -0.000   0.000   4.263  -0.000  -0.000   0.000  -0.000   0.000   7.244  -0.000  -0.000   0.000
  0.000   0.000   0.000   0.000  -0.000   0.098  -0.000  -0.000   4.263  -0.000  -0.000   0.172  -0.000  -0.000   7.244  -0.000
  0.000   0.000   0.000   0.000   7.244  -0.000  -0.000  -0.000  -0.000  -0.172  12.405  -0.000  -0.000  -0.000  -0.000  -0.301
  0.000   0.000   0.000   0.000  -0.000   0.000   7.244  -0.000  -0.000   0.000  -0.000   0.000  12.405  -0.000  -0.000   0.000
  0.000   0.000   0.000   0.000  -0.000   0.172  -0.000  -0.000   7.244  -0.000  -0.000   0.301  -0.000  -0.000  12.405  -0.000
 -0.000   0.000  -0.000   0.000   0.000   0.000   0.004   0.000   0.000   0.000   0.000   0.000   0.005   0.000   0.000   0.000
 -0.000   0.000  -0.000   0.000   0.000   0.000   0.000   0.000   0.004   0.000   0.000   0.000   0.000   0.000   0.005   0.000
 -0.000   0.000  -0.000   0.000  -0.000   0.000   0.000   0.000  -0.000   0.000  -0.000   0.000   0.000   0.000  -0.000   0.000
 -0.000   0.000  -0.000   0.000   0.004   0.000   0.000   0.000   0.000   0.000   0.005   0.000   0.000   0.000   0.000   0.000
 -0.000   0.000  -0.000   0.000  -0.000   0.000  -0.000   0.000   0.000   0.000  -0.000   0.000  -0.000   0.000   0.000   0.000
 total augmentation occupancy for first ion, spin component:           1
  2.000   0.000   0.000   0.000   0.000   0.000   0.000   0.000   0.000   0.000   0.000   0.000   0.000
  0.000   0.000   0.000   0.000   0.000   0.000   0.000   0.000   0.000   0.000   0.000   0.000   0.000
  0.000   0.000   0.333   0.000   0.000   0.000   0.000   0.000   0.000   0.000   0.000   0.000   0.000
  0.000   0.000   0.000   0.333   0.000   0.000   0.000   0.000   0.000   0.000   0.000   0.000   0.000
  0.000   0.000   0.000   0.000   0.333   0.000   0.000   0.000   0.000   0.000   0.000   0.000   0.000
  0.000   0.000   0.000   0.000   0.000   0.000   0.000   0.000   0.000   0.000   0.000   0.000   0.000
  0.000   0.000   0.000   0.000   0.000   0.000   0.000   0.000   0.000   0.000   0.000   0.000   0.000
  0.000   0.000   0.000   0.000   0.000   0.000   0.000   0.000   0.000   0.000   0.000   0.000   0.000
  0.000   0.000   0.000   0.000   0.000   0.000   0.000   0.000   0.000   0.000   0.000   0.000   0.000
  0.000   0.000   0.000   0.000   0.000   0.000   0.000   0.000   0.000   0.000   0.000   0.000   0.000
  0.000   0.000   0.000   0.000   0.000   0.000   0.000   0.000   0.000   0.000   0.000   0.000   0.000
  0.000   0.000   0.000   0.000   0.000   0.000   0.000   0.000   0.000   0.000   0.000   0.000   0.000
  0.000   0.000   0.000   0.000   0.000   0.000   0.000   0.000   0.000   0.000   0.000   0.000   0.000
 total augmentation occupancy for first ion, spin component:           2
  0.000   0.000   0.000   0.000   0.000   0.000   0.000   0.000   0.000   0.000   0.000   0.000   0.000
  0.000   0.000   0.000   0.000   0.000   0.000   0.000   0.000   0.000   0.000   0.000   0.000   0.000
  0.000   0.000   0.000   0.000   0.000   0.000   0.000   0.000   0.000   0.000   0.000   0.000   0.000
  0.000   0.000   0.000   0.000   0.000   0.000   0.000   0.000   0.000   0.000   0.000   0.000   0.000
  0.000   0.000   0.000   0.000   0.000   0.000   0.000   0.000   0.000   0.000   0.000   0.000   0.000
  0.000   0.000   0.000   0.000   0.000   0.000   0.000   0.000   0.000   0.000   0.000   0.000   0.000
  0.000   0.000   0.000   0.000   0.000   0.000   0.000   0.000   0.000   0.000   0.000   0.000   0.000
  0.000   0.000   0.000   0.000   0.000   0.000   0.000   0.000   0.000   0.000   0.000   0.000   0.000
  0.000   0.000   0.000   0.000   0.000   0.000   0.000   0.000   0.000   0.000   0.000   0.000   0.000
  0.000   0.000   0.000   0.000   0.000   0.000   0.000   0.000   0.000   0.000   0.000   0.000   0.000
  0.000   0.000   0.000   0.000   0.000   0.000   0.000   0.000   0.000   0.000   0.000   0.000   0.000
  0.000   0.000   0.000   0.000   0.000   0.000   0.000   0.000   0.000   0.000   0.000   0.000   0.000
  0.000   0.000   0.000   0.000   0.000   0.000   0.000   0.000   0.000   0.000   0.000   0.000   0.000
 total augmentation occupancy for first ion, spin component:           3
  0.000   0.000   0.000   0.000   0.000   0.000   0.000   0.000   0.000   0.000   0.000   0.000   0.000
  0.000   0.000   0.000   0.000   0.000   0.000   0.000   0.000   0.000   0.000   0.000   0.000   0.000
  0.000   0.000   0.000   0.000   0.000   0.000   0.000   0.000   0.000   0.000   0.000   0.000   0.000
  0.000   0.000   0.000   0.000   0.000   0.000   0.000   0.000   0.000   0.000   0.000   0.000   0.000
  0.000   0.000   0.000   0.000   0.000   0.000   0.000   0.000   0.000   0.000   0.000   0.000   0.000
  0.000   0.000   0.000   0.000   0.000   0.000   0.000   0.000   0.000   0.000   0.000   0.000   0.000
  0.000   0.000   0.000   0.000   0.000   0.000   0.000   0.000   0.000   0.000   0.000   0.000   0.000
  0.000   0.000   0.000   0.000   0.000   0.000   0.000   0.000   0.000   0.000   0.000   0.000   0.000
  0.000   0.000   0.000   0.000   0.000   0.000   0.000   0.000   0.000   0.000   0.000   0.000   0.000
  0.000   0.000   0.000   0.000   0.000   0.000   0.000   0.000   0.000   0.000   0.000   0.000   0.000
  0.000   0.000   0.000   0.000   0.000   0.000   0.000   0.000   0.000   0.000   0.000   0.000   0.000
  0.000   0.000   0.000   0.000   0.000   0.000   0.000   0.000   0.000   0.000   0.000   0.000   0.000
  0.000   0.000   0.000   0.000   0.000   0.000   0.000   0.000   0.000   0.000   0.000   0.000   0.000
 total augmentation occupancy for first ion, spin component:           4
  0.000   0.000   0.000   0.000   0.000   0.000   0.000   0.000   0.000   0.000   0.000   0.000   0.000
  0.000   0.000   0.000   0.000   0.000   0.000   0.000   0.000   0.000   0.000   0.000   0.000   0.000
  0.000   0.000   0.000   0.000   0.000   0.000   0.000   0.000   0.000   0.000   0.000   0.000   0.000
  0.000   0.000   0.000   0.000   0.000   0.000   0.000   0.000   0.000   0.000   0.000   0.000   0.000
  0.000   0.000   0.000   0.000   0.000   0.000   0.000   0.000   0.000   0.000   0.000   0.000   0.000
  0.000   0.000   0.000   0.000   0.000   0.000   0.000   0.000   0.000   0.000   0.000   0.000   0.000
  0.000   0.000   0.000   0.000   0.000   0.000   0.000   0.000   0.000   0.000   0.000   0.000   0.000
  0.000   0.000   0.000   0.000   0.000   0.000   0.000   0.000   0.000   0.000   0.000   0.000   0.000
  0.000   0.000   0.000   0.000   0.000   0.000   0.000   0.000   0.000   0.000   0.000   0.000   0.000
  0.000   0.000   0.000   0.000   0.000   0.000   0.000   0.000   0.000   0.000   0.000   0.000   0.000
  0.000   0.000   0.000   0.000   0.000   0.000   0.000   0.000   0.000   0.000   0.000   0.000   0.000
  0.000   0.000   0.000   0.000   0.000   0.000   0.000   0.000   0.000   0.000   0.000   0.000   0.000
  0.000   0.000   0.000   0.000   0.000   0.000   0.000   0.000   0.000   0.000   0.000   0.000   0.000


------------------------ aborting loop because EDIFF is reached ----------------------------------------


    CHARGE:  cpu time    0.0613: real time    0.0614
    FORLOC:  cpu time    0.0003: real time    0.0003
    FORNL :  cpu time    0.0540: real time    0.0541
    STRESS:  cpu time    0.5326: real time    0.5332
    FORCOR:  cpu time    0.0068: real time    0.0083
    FORHAR:  cpu time    0.0009: real time    0.0009
    OFIELD:  cpu time    0.0000: real time    0.0000

  FORCE on cell =-STRESS in cart. coord.  units (eV):
  Direction    XX          YY          ZZ          XY          YZ          ZX
  --------------------------------------------------------------------------------------
  Alpha Z     6.67625     6.67625     6.67625
  Ewald     -71.28251   -71.28251   -71.28251     0.00000     0.00000     0.00000
  Hartree    10.26551    10.26551    10.26551    -0.00000    -0.00000    -0.00000
  E(xc)     -31.72635   -31.72635   -31.72635    -0.00000    -0.00000    -0.00000
  Local     -36.61477   -36.61477   -36.61477     0.00003     0.00003     0.00003
  n-local    69.91533    66.96711    68.96644    -1.54583    -0.66132    -0.85679
  augment    -7.66720    -7.66720    -7.66720    -0.00007    -0.00007    -0.00007
  Kinetic    67.93988    63.87624    68.11014    -2.67402    -1.48298    -1.77537
  Fock        0.00000     0.00000     0.00000     0.00000     0.00000     0.00000
  -------------------------------------------------------------------------------------
  Total       4.90931     4.90931     4.90931     0.00000    -0.00000     0.00000
  in kB     141.48713   141.48713   141.48713     0.00000    -0.00000     0.00000
  external pressure =      141.49 kB  Pullay stress =        0.00 kB


 VOLUME and BASIS-vectors are now :
 -----------------------------------------------------------------------------
  energy-cutoff  :      300.00
  volume of cell :       55.59
      direct lattice vectors                 reciprocal lattice vectors
     0.000000000  3.029200000  3.029200000    -0.165060082  0.165060082  0.165060082
     3.029200000  0.000000000  3.029200000     0.165060082 -0.165060082  0.165060082
     3.029200000  3.029200000  0.000000000     0.165060082  0.165060082 -0.165060082

  length of vectors
     4.283935723  4.283935723  4.283935723     0.285892448  0.285892448  0.285892448


 FORCES acting on ions
    electron-ion (+dipol)            ewald-force                    non-local-force                 convergence-correction
 -----------------------------------------------------------------------------------------------
   0.143E-05 0.143E-05 0.143E-05   0.444E-14 0.367E-14 0.481E-14   -.194E-15 -.264E-15 -.226E-15   -.782E-09 -.782E-09 -.782E-09
   0.474E-06 0.474E-06 0.474E-06   -.445E-14 -.376E-14 -.512E-14   -.694E-16 -.278E-16 -.555E-16   0.155E-08 0.155E-08 0.155E-08
 -----------------------------------------------------------------------------------------------
   0.191E-05 0.191E-05 0.191E-05   -.623E-17 -.883E-16 -.308E-15   -.264E-15 -.291E-15 -.281E-15   0.770E-09 0.770E-09 0.770E-09
 
 
 POSITION                                       TOTAL-FORCE (eV/Angst)
 -----------------------------------------------------------------------------------
      0.00000      0.00000      0.00000        -0.000000     -0.000000     -0.000000
      1.51460      1.51460      1.51460         0.000000      0.000000      0.000000
 -----------------------------------------------------------------------------------
    total drift:                                0.000002      0.000002      0.000002


--------------------------------------------------------------------------------------------------------



  FREE ENERGIE OF THE ION-ELECTRON SYSTEM (eV)
  ---------------------------------------------------
  free  energy   TOTEN  =       -10.78250809 eV

  energy  without entropy=      -10.78284963  energy(sigma->0) =      -10.78262194
 


--------------------------------------------------------------------------------------------------------


    POTLOK:  cpu time    0.0163: real time    0.0163


--------------------------------------------------------------------------------------------------------


     LOOP+:  cpu time   19.6281: real time   19.8865
    4ORBIT:  cpu time    0.0000: real time    0.0000

 Spin-Orbit-Coupling matrix elements

 Ion:    1  E_soc:     -0.0308307
 l=   1
     0.0000000    -0.0048623    -0.0048623
    -0.0048623     0.0000000    -0.0048623
    -0.0048623    -0.0048623     0.0000000
 l=   2
     0.0000000    -0.0001074     0.0000000    -0.0001074    -0.0001688
    -0.0001074     0.0000000    -0.0001266    -0.0001074    -0.0000422
     0.0000000    -0.0001266     0.0000000    -0.0001266     0.0000000
    -0.0001074    -0.0001074    -0.0001266     0.0000000    -0.0000422
    -0.0001688    -0.0000422     0.0000000    -0.0000422     0.0000000
 l=   3
     0.0000000     0.0000000     0.0000000     0.0000000     0.0000000     0.0000000     0.0000000
     0.0000000     0.0000000     0.0000000     0.0000000     0.0000000     0.0000000     0.0000000
     0.0000000     0.0000000     0.0000000     0.0000000     0.0000000     0.0000000     0.0000000
     0.0000000     0.0000000     0.0000000     0.0000000     0.0000000     0.0000000     0.0000000
     0.0000000     0.0000000     0.0000000     0.0000000     0.0000000     0.0000000     0.0000000
     0.0000000     0.0000000     0.0000000     0.0000000     0.0000000     0.0000000     0.0000000
     0.0000000     0.0000000     0.0000000     0.0000000     0.0000000     0.0000000     0.0000000

 Ion:    2  E_soc:     -0.0259753
 l=   1
     0.0000000    -0.0043321    -0.0043321
    -0.0043321     0.0000000    -0.0043321
    -0.0043321    -0.0043321     0.0000000
 l=   2
     0.0000000     0.0000015     0.0000000     0.0000015     0.0000014
     0.0000015     0.0000000     0.0000010     0.0000015     0.0000003
     0.0000000     0.0000010     0.0000000     0.0000010     0.0000000
     0.0000015     0.0000015     0.0000010     0.0000000     0.0000003
     0.0000014     0.0000003     0.0000000     0.0000003     0.0000000
 l=   3
     0.0000000     0.0000000     0.0000000     0.0000000     0.0000000     0.0000000     0.0000000
     0.0000000     0.0000000     0.0000000     0.0000000     0.0000000     0.0000000     0.0000000
     0.0000000     0.0000000     0.0000000     0.0000000     0.0000000     0.0000000     0.0000000
     0.0000000     0.0000000     0.0000000     0.0000000     0.0000000     0.0000000     0.0000000
     0.0000000     0.0000000     0.0000000     0.0000000     0.0000000     0.0000000     0.0000000
     0.0000000     0.0000000     0.0000000     0.0000000     0.0000000     0.0000000     0.0000000
     0.0000000     0.0000000     0.0000000     0.0000000     0.0000000     0.0000000     0.0000000

 total amount of memory used by VASP MPI-rank0    52245. kBytes
=======================================================================

   base      :      30000. kBytes
   nonl-proj :      13999. kBytes
   fftplans  :        138. kBytes
   grid      :       1057. kBytes
   one-center:         64. kBytes
   wavefun   :       6987. kBytes
 
  
  
 General timing and accounting informations for this job:
 ========================================================
  
                  Total CPU time used (sec):       21.695
                            User time (sec):       20.286
                          System time (sec):        1.410
                         Elapsed time (sec):       22.072
  
                   Maximum memory used (kb):       83068.
                   Average memory used (kb):           0.
  
                          Minor page faults:        52119
                          Major page faults:            0
                 Voluntary context switches:         1074
