 vasp.5.4.4.18Apr17-6-g9f103f2a35 (build Nov 08 2017 12:56:59) complex          
  
 executed on             LinuxIFC date 2021.05.28  00:23:10
 running on   56 total cores
 distrk:  each k-point on   56 cores,    1 groups
 distr:  one band on NCORES_PER_BAND=   1 cores,   56 groups


--------------------------------------------------------------------------------------------------------


 INCAR:
 POTCAR:    PAW_PBE In 08Apr2002                  
 POTCAR:    PAW_PBE As 22Sep2009                  

 ----------------------------------------------------------------------------- 
|                                                                             |
|           W    W    AA    RRRRR   N    N  II  N    N   GGGG   !!!           |
|           W    W   A  A   R    R  NN   N  II  NN   N  G    G  !!!           |
|           W    W  A    A  R    R  N N  N  II  N N  N  G       !!!           |
|           W WW W  AAAAAA  RRRRR   N  N N  II  N  N N  G  GGG   !            |
|           WW  WW  A    A  R   R   N   NN  II  N   NN  G    G                |
|           W    W  A    A  R    R  N    N  II  N    N   GGGG   !!!           |
|                                                                             |
|      For optimal performance we recommend to set                            |
|        NCORE= 4 - approx SQRT( number of cores)                             |
|      NCORE specifies how many cores store one orbital (NPAR=cpu/NCORE).     |
|      This setting can  greatly improve the performance of VASP for DFT.     |
|      The default,   NCORE=1            might be grossly inefficient         |
|      on modern multi-core architectures or massively parallel machines.     |
|      Do your own testing !!!!                                               |
|      Unfortunately you need to use the default for GW and RPA calculations. |
|      (for HF NCORE is supported but not extensively tested yet)             |
|                                                                             |
 ----------------------------------------------------------------------------- 

 POTCAR:    PAW_PBE In 08Apr2002                  
   VRHFIN =In: s2p1                                                             
   LEXCH  = PE                                                                  
   EATOM  =    53.7908 eV,    3.9535 Ry                                         
                                                                                
   TITEL  = PAW_PBE In 08Apr2002                                                
   LULTRA =        F    use ultrasoft PP ?                                      
   IUNSCR =        1    unscreen: 0-lin 1-nonlin 2-no                           
   RPACOR =    2.400    partial core radius                                     
   POMASS =  114.820; ZVAL   =    3.000    mass and valenz                      
   RCORE  =    3.100    outmost cutoff radius                                   
   RWIGS  =    3.170; RWIGS  =    1.677    wigner-seitz radius (au A)           
   ENMAX  =   95.934; ENMIN  =   71.951 eV                                      
   ICORE  =        3    local potential                                         
   LCOR   =        T    correct aug charges                                     
   LPAW   =        T    paw PP                                                  
   EAUG   =  237.125                                                            
   DEXC   =    0.000                                                            
   RMAX   =    3.168    core radius for proj-oper                               
   RAUG   =    1.300    factor for augmentation sphere                          
   RDEP   =    3.187    radius for radial grids                                 
   RDEPT  =    2.711    core radius for aug-charge                              
                                                                                
   Atomic configuration                                                         
   13 entries                                                                   
     n  l   j            E        occ.                                          
     1  0  0.50    -27747.9169   2.0000                                         
     2  0  0.50     -4154.4438   2.0000                                         
     2  1  1.50     -3728.4305   6.0000                                         
     3  0  0.50      -788.3680   2.0000                                         
     3  1  1.50      -648.9215   6.0000                                         
     3  2  2.50      -432.5893  10.0000                                         
     4  0  0.50      -119.6363   2.0000                                         
     4  1  1.50       -78.1086   6.0000                                         
     4  2  2.50       -18.6227  10.0000                                         
     5  0  0.50        -8.2107   2.0000                                         
     5  1  0.50        -2.5185   1.0000                                         
     5  2  2.50        -1.3606   0.0000                                         
     4  3  2.50        -2.7212   0.0000                                         
   Description                                                                  
     l       E           TYP  RCUT    TYP  RCUT                                 
     0     -8.2107306     23  3.100                                             
     0     -6.1485975     23  3.100                                             
     1     -2.5184867     23  3.100                                             
     1      3.2427302     23  3.100                                             
     2     -1.3605826     23  3.100                                             
     3     -1.3605826     23  3.100                                             
  local pseudopotential read in
  partial core-charges read in
  partial kinetic energy density read in
  atomic valenz-charges read in
  non local Contribution for L=           0  read in
    real space projection operators read in
  non local Contribution for L=           0  read in
    real space projection operators read in
  non local Contribution for L=           1  read in
    real space projection operators read in
  non local Contribution for L=           1  read in
    real space projection operators read in
  non local Contribution for L=           2  read in
    real space projection operators read in
    PAW grid and wavefunctions read in
 
   number of l-projection  operators is LMAX  =           5
   number of lm-projection operators is LMMAX =          13
 
 POTCAR:    PAW_PBE As 22Sep2009                  
   VRHFIN =As: s2p3                                                             
   LEXCH  = PE                                                                  
   EATOM  =   170.1867 eV,   12.5084 Ry                                         
                                                                                
   TITEL  = PAW_PBE As 22Sep2009                                                
   LULTRA =        F    use ultrasoft PP ?                                      
   IUNSCR =        1    unscreen: 0-lin 1-nonlin 2-no                           
   RPACOR =    1.900    partial core radius                                     
   POMASS =   74.922; ZVAL   =    5.000    mass and valenz                      
   RCORE  =    2.100    outmost cutoff radius                                   
   RWIGS  =    2.300; RWIGS  =    1.217    wigner-seitz radius (au A)           
   ENMAX  =  208.702; ENMIN  =  156.526 eV                                      
   ICORE  =        3    local potential                                         
   LCOR   =        T    correct aug charges                                     
   LPAW   =        T    paw PP                                                  
   EAUG   =  462.758                                                            
   DEXC   =    0.000                                                            
   RMAX   =    2.144    core radius for proj-oper                               
   RAUG   =    1.300    factor for augmentation sphere                          
   RDEP   =    2.140    radius for radial grids                                 
   RDEPT  =    1.956    core radius for aug-charge                              
                                                                                
   Atomic configuration                                                         
   10 entries                                                                   
     n  l   j            E        occ.                                          
     1  0  0.50    -11718.0418   2.0000                                         
     2  0  0.50     -1486.5454   2.0000                                         
     2  1  1.50     -1303.3889   6.0000                                         
     3  0  0.50      -190.2849   2.0000                                         
     3  1  1.50      -133.6555   6.0000                                         
     3  2  2.50       -40.6443  10.0000                                         
     4  0  0.50       -14.4936   2.0000                                         
     4  1  0.50        -5.1947   3.0000                                         
     4  2  1.50        -5.4423   0.0000                                         
     4  3  2.50        -5.4423   0.0000                                         
   Description                                                                  
     l       E           TYP  RCUT    TYP  RCUT                                 
     0    -14.4935570     23  2.100                                             
     0    -11.9212055     23  2.100                                             
     1     -5.1947127     23  2.100                                             
     1     27.2116520     23  2.100                                             
     2     -5.4423304     23  2.100                                             
     3     -1.3605826      7  2.100                                             
  local pseudopotential read in
  partial core-charges read in
  partial kinetic energy density read in
  atomic valenz-charges read in
  non local Contribution for L=           0  read in
    real space projection operators read in
  non local Contribution for L=           0  read in
    real space projection operators read in
  non local Contribution for L=           1  read in
    real space projection operators read in
  non local Contribution for L=           1  read in
    real space projection operators read in
  non local Contribution for L=           2  read in
    real space projection operators read in
    PAW grid and wavefunctions read in
 
   number of l-projection  operators is LMAX  =           5
   number of lm-projection operators is LMMAX =          13
 
  PAW_PBE In 08Apr2002                  :
 energy of atom  1       EATOM=  -53.7908
 kinetic energy error for atom=    0.0001 (will be added to EATOM!!)
  PAW_PBE As 22Sep2009                  :
 energy of atom  2       EATOM= -170.1867
 kinetic energy error for atom=    0.0022 (will be added to EATOM!!)
 
 
 POSCAR: In As                                   
  positions in direct lattice
  No initial velocities read in
 exchange correlation table for  LEXCH =        8
   RHO(1)=    0.500       N(1)  =     2000
   RHO(2)=  100.500       N(2)  =     4000
 


--------------------------------------------------------------------------------------------------------


 ion  position               nearest neighbor table
   1  0.000  0.000  0.000-   2 2.62   2 2.62   2 2.62   2 2.62
   2  0.250  0.250  0.250-   1 2.62   1 2.62   1 2.62   1 2.62
 
  LATTYP: Found a face centered cubic cell.
 ALAT       =     6.0584000000
  
  Lattice vectors:
  
 A1 = (   0.0000000000,   3.0292000000,   3.0292000000)
 A2 = (   3.0292000000,   0.0000000000,   3.0292000000)
 A3 = (   3.0292000000,   3.0292000000,   0.0000000000)


Analysis of symmetry for initial positions (statically):
=====================================================================
 Subroutine PRICEL returns:
 Original cell was already a primitive cell.
 

 Routine SETGRP: Setting up the symmetry group for a 
 face centered cubic supercell.


 Subroutine GETGRP returns: Found 24 space group operations
 (whereof 24 operations were pure point group operations)
 out of a pool of 48 trial point group operations.


The static configuration has the point symmetry T_d .


Analysis of symmetry for dynamics (positions and initial velocities):
=====================================================================
 Subroutine PRICEL returns:
 Original cell was already a primitive cell.
 

 Routine SETGRP: Setting up the symmetry group for a 
 face centered cubic supercell.


 Subroutine GETGRP returns: Found 24 space group operations
 (whereof 24 operations were pure point group operations)
 out of a pool of 48 trial point group operations.


The dynamic configuration has the point symmetry T_d .


Analysis of structural, dynamic, and magnetic symmetry:
=====================================================================
 Subroutine PRICEL returns:
 Original cell was already a primitive cell.
 

 Routine SETGRP: Setting up the symmetry group for a 
 face centered cubic supercell.


 Subroutine GETGRP returns: Found 24 space group operations
 (whereof 24 operations were pure point group operations)
 out of a pool of 48 trial point group operations.


The (compounded) configuration has the point symmetry T_d .


 Subroutine INISYM returns: Found 24 space group operations
 (whereof 24 operations are pure point group operations),
 and found     1 'primitive' translations

 
 
 KPOINTS: band                                    
  interpolating k-points between supplied coordinates
  k-points in reciprocal lattice
Space group operators:
 irot       det(A)        alpha          n_x          n_y          n_z        tau_x        tau_y        tau_z
    1     1.000000     0.000000     1.000000     0.000000     0.000000     0.000000     0.000000     0.000000
    2     1.000000   120.000000    -0.577350    -0.577350    -0.577350     0.000000     0.000000     0.000000
    3     1.000000   120.000000     0.577350     0.577350     0.577350     0.000000     0.000000     0.000000
    4    -1.000000    90.000000     0.000000     0.000000    -1.000000     0.000000     0.000000     0.000000
    5    -1.000000   180.000000     0.000000     0.707107     0.707107     0.000000     0.000000     0.000000
    6    -1.000000    90.000000     0.000000     1.000000     0.000000     0.000000     0.000000     0.000000
    7     1.000000   180.000000     0.000000     0.000000     1.000000     0.000000     0.000000     0.000000
    8     1.000000   120.000000    -0.577350     0.577350     0.577350     0.000000     0.000000     0.000000
    9     1.000000   120.000000    -0.577350     0.577350    -0.577350     0.000000     0.000000     0.000000
   10    -1.000000    90.000000     0.000000     0.000000     1.000000     0.000000     0.000000     0.000000
   11    -1.000000    90.000000    -1.000000     0.000000     0.000000     0.000000     0.000000     0.000000
   12    -1.000000   180.000000     0.707107     0.000000     0.707107     0.000000     0.000000     0.000000
   13     1.000000   120.000000     0.577350    -0.577350     0.577350     0.000000     0.000000     0.000000
   14     1.000000   120.000000    -0.577350    -0.577350     0.577350     0.000000     0.000000     0.000000
   15     1.000000   180.000000     1.000000     0.000000     0.000000     0.000000     0.000000     0.000000
   16    -1.000000    90.000000     0.000000    -1.000000     0.000000     0.000000     0.000000     0.000000
   17    -1.000000   180.000000     0.707107     0.707107     0.000000     0.000000     0.000000     0.000000
   18    -1.000000    90.000000     1.000000     0.000000     0.000000     0.000000     0.000000     0.000000
   19     1.000000   120.000000     0.577350    -0.577350    -0.577350     0.000000     0.000000     0.000000
   20     1.000000   180.000000     0.000000     1.000000     0.000000     0.000000     0.000000     0.000000
   21     1.000000   120.000000     0.577350     0.577350    -0.577350     0.000000     0.000000     0.000000
   22    -1.000000   180.000000     0.000000    -0.707107     0.707107     0.000000     0.000000     0.000000
   23    -1.000000   180.000000     0.707107    -0.707107     0.000000     0.000000     0.000000     0.000000
   24    -1.000000   180.000000     0.707107     0.000000    -0.707107     0.000000     0.000000     0.000000


--------------------------------------------------------------------------------------------------------




 Dimension of arrays:
   k-points           NKPTS =    100   k-points in BZ     NKDIM =    100   number of bands    NBANDS=     56
   number of dos      NEDOS =    301   number of ions     NIONS =      2
   non local maximal  LDIM  =      5   non local SUM 2l+1 LMDIM =     13
   total plane-waves  NPLWV =   5832
   max r-space proj   IRMAX =      1   max aug-charges    IRDMAX=  12033
   dimension x,y,z NGX =    18 NGY =   18 NGZ =   18
   dimension x,y,z NGXF=    36 NGYF=   36 NGZF=   36
   support grid    NGXF=    36 NGYF=   36 NGZF=   36
   ions per type =               1   1
   NGX,Y,Z   is equivalent  to a cutoff of   6.99,  6.99,  6.99 a.u.
   NGXF,Y,Z  is equivalent  to a cutoff of  13.97, 13.97, 13.97 a.u.

 SYSTEM =  unknown system                          
 POSCAR =  In As                                   

 Startparameter for this run:
   NWRITE =      2    write-flag & timer
   PREC   = n         normal or accurate (medium, high low for compatibility)
   ISTART =      1    job   : 0-new  1-cont  2-samecut
   ICHARG =     11    charge: 1-file 2-atom 10-const
   ISPIN  =      1    spin polarized calculation?
   LNONCOLLINEAR =      T non collinear calculations
   LSORBIT =      T    spin-orbit coupling
   INIWAV =      1    electr: 0-lowe 1-rand  2-diag
   LASPH  =      F    aspherical Exc in radial PAW
   METAGGA=      F    non-selfconsistent MetaGGA calc.

 Electronic Relaxation 1
   ENCUT  =  300.0 eV  22.05 Ry    4.70 a.u.   6.05  6.05  6.05*2*pi/ulx,y,z
   ENINI  =  300.0     initial cutoff
   ENAUG  =  462.8 eV  augmentation charge cutoff
   NELM   =     60;   NELMIN=  2; NELMDL=  0     # of ELM steps 
   EDIFF  = 0.1E-03   stopping-criterion for ELM
   LREAL  =      F    real-space projection
   NLSPLINE    = F    spline interpolate recip. space projectors
   LCOMPAT=      F    compatible to vasp.4.4
   GGA_COMPAT  = T    GGA compatible to vasp.4.4-vasp.4.6
   LMAXPAW     = -100 max onsite density
   LMAXMIX     =    4 max onsite mixed and CHGCAR
   VOSKOWN=      0    Vosko Wilk Nusair interpolation
   ROPT   =    0.00000   0.00000
 Ionic relaxation
   EDIFFG = 0.1E-02   stopping-criterion for IOM
   NSW    =      0    number of steps for IOM
   NBLOCK =      1;   KBLOCK =      1    inner block; outer block 
   IBRION =     -1    ionic relax: 0-MD 1-quasi-New 2-CG
   NFREE  =      0    steps in history (QN), initial steepest desc. (CG)
   ISIF   =      2    stress and relaxation
   IWAVPR =     10    prediction:  0-non 1-charg 2-wave 3-comb
   ISYM   =      2    0-nonsym 1-usesym 2-fastsym
   LCORR  =      T    Harris-Foulkes like correction to forces

   POTIM  = 0.5000    time-step for ionic-motion
   TEIN   =    0.0    initial temperature
   TEBEG  =    0.0;   TEEND  =   0.0 temperature during run
   SMASS  =  -3.00    Nose mass-parameter (am)
   estimated Nose-frequenzy (Omega)   =  0.10E-29 period in steps =****** mass=  -0.419E-27a.u.
   SCALEE = 1.0000    scale energy and forces
   NPACO  =    256;   APACO  = 16.0  distance and # of slots for P.C.
   PSTRESS=    0.0 pullay stress

  Mass of Ions in am
   POMASS = 114.82 74.92
  Ionic Valenz
   ZVAL   =   3.00  5.00
  Atomic Wigner-Seitz radii
   RWIGS  =  -1.00 -1.00
  virtual crystal weights 
   VCA    =   1.00  1.00
   NELECT =       8.0000    total number of electrons
   NUPDOWN=      -1.0000    fix difference up-down

 DOS related values:
   EMIN   =  10.00;   EMAX   =-10.00  energy-range for DOS
   EFERMI =   0.00
   ISMEAR =     1;   SIGMA  =   0.05  broadening in eV -4-tet -1-fermi 0-gaus

 Electronic relaxation 2 (details)
   IALGO  =     53    algorithm
   LDIAG  =      T    sub-space diagonalisation (order eigenvalues)
   LSUBROT=      F    optimize rotation matrix (better conditioning)
   TURBO    =      0    0=normal 1=particle mesh
   IRESTART =      0    0=no restart 2=restart with 2 vectors
   NREBOOT  =      0    no. of reboots
   NMIN     =      0    reboot dimension
   EREF     =   0.00    reference energy to select bands
   IMIX   =      4    mixing-type and parameters
     AMIX     =   0.40;   BMIX     =  1.00
     AMIX_MAG =   1.60;   BMIX_MAG =  1.00
     AMIN     =   0.10
     WC   =   100.;   INIMIX=   1;  MIXPRE=   1;  MAXMIX= -45

 Intra band minimization:
   WEIMIN = 0.0000     energy-eigenvalue tresh-hold
   EBREAK =  0.45E-06  absolut break condition
   DEPER  =   0.30     relativ break condition  

   TIME   =   0.40     timestep for ELM

  volume/ion in A,a.u.               =      27.80       187.58
  Fermi-wavevector in a.u.,A,eV,Ry     =   0.857894  1.621184 10.013641  0.735982
  Thomas-Fermi vector in A             =   1.975016
 
 Write flags
   LWAVE        =      F    write WAVECAR
   LDOWNSAMPLE  =      F    k-point downsampling of WAVECAR
   LCHARG       =      F    write CHGCAR
   LVTOT        =      F    write LOCPOT, total local potential
   LVHAR        =      F    write LOCPOT, Hartree potential only
   LELF         =      F    write electronic localiz. function (ELF)
   LORBIT       =      0    0 simple, 1 ext, 2 COOP (PROOUT), +10 PAW based schemes


 Dipole corrections
   LMONO  =      F    monopole corrections only (constant potential shift)
   LDIPOL =      F    correct potential (dipole corrections)
   IDIPOL =      0    1-x, 2-y, 3-z, 4-all directions 
   EPSILON=  1.0000000 bulk dielectric constant

 LDA+U is selected, type is set to LDAUTYPE =  2
   angular momentum for each species LDAUL =     1    1
   U (eV)           for each species LDAUU =   4.0-10.0
   J (eV)           for each species LDAUJ =   0.0  0.0
 Exchange correlation treatment:
   GGA     =    PE    GGA type
   LEXCH   =     8    internal setting for exchange type
   VOSKOWN=      0    Vosko Wilk Nusair interpolation
   LHFCALC =     F    Hartree Fock is set to
   LHFONE  =     F    Hartree Fock one center treatment
   AEXX    =    0.0000 exact exchange contribution

 Linear response parameters
   LEPSILON=     F    determine dielectric tensor
   LRPA    =     F    only Hartree local field effects (RPA)
   LNABLA  =     F    use nabla operator in PAW spheres
   LVEL    =     F    velocity operator in full k-point grid
   LINTERFAST=   F  fast interpolation
   KINTER  =     0    interpolate to denser k-point grid
   CSHIFT  =0.1000    complex shift for real part using Kramers Kronig
   OMEGAMAX=  -1.0    maximum frequency
   DEG_THRESHOLD= 0.2000000E-02 threshold for treating states as degnerate
   RTIME   =   -0.100 relaxation time in fs
  (WPLASMAI=    0.000 imaginary part of plasma frequency in eV, 0.658/RTIME)
   DFIELD  = 0.0000000 0.0000000 0.0000000 field for delta impulse in time
 
 Orbital magnetization related:
   ORBITALMAG=     F  switch on orbital magnetization
   LCHIMAG   =     F  perturbation theory with respect to B field
   DQ        =  0.001000  dq finite difference perturbation B field
   LLRAUG    =     F  two centre corrections for induced B field



--------------------------------------------------------------------------------------------------------


 Static calculation
 charge density and potential remain constant during run
 non collinear spin polarized calculation
 Conjugate gradient for all bands (Freysoldt, et al. PRB 79, 241103 (2009))
 perform sub-space diagonalisation
    before iterative eigenvector-optimisation
 no mixing
 using additional bands           52
 reciprocal scheme for non local part
 use partial core corrections
 calculate Harris-corrections to forces 
   (improved forces if not selfconsistent)
 use gradient corrections 
 WARNING: stress and forces are not correct
  (second derivative of E(xc) not defined)
 use of overlap-Matrix (Vanderbilt PP)
 Methfessel and Paxton  Order N= 1 SIGMA  =   0.05


--------------------------------------------------------------------------------------------------------


  energy-cutoff  :      300.00
  volume of cell :       55.59
      direct lattice vectors                 reciprocal lattice vectors
     0.000000000  3.029200000  3.029200000    -0.165060082  0.165060082  0.165060082
     3.029200000  0.000000000  3.029200000     0.165060082 -0.165060082  0.165060082
     3.029200000  3.029200000  0.000000000     0.165060082  0.165060082 -0.165060082

  length of vectors
     4.283935723  4.283935723  4.283935723     0.285892448  0.285892448  0.285892448


 
 old parameters found on file WAVECAR:
  energy-cutoff  :      300.00
  volume of cell :       55.59
      direct lattice vectors                 reciprocal lattice vectors
     0.000000000  3.029200000  3.029200000    -0.165060082  0.165060082  0.165060082
     3.029200000  0.000000000  3.029200000     0.165060082 -0.165060082  0.165060082
     3.029200000  3.029200000  0.000000000     0.165060082  0.165060082 -0.165060082

  length of vectors

 
 k-points in units of 2pi/SCALE and weight: band                                    
   0.00000000  0.00000000  0.00000000       0.010
   0.00000000  0.00868737  0.00000000       0.010
   0.00000000  0.01737475  0.00000000       0.010
   0.00000000  0.02606212  0.00000000       0.010
   0.00000000  0.03474949  0.00000000       0.010
   0.00000000  0.04343686  0.00000000       0.010
   0.00000000  0.05212424  0.00000000       0.010
   0.00000000  0.06081161  0.00000000       0.010
   0.00000000  0.06949898  0.00000000       0.010
   0.00000000  0.07818635  0.00000000       0.010
   0.00000000  0.08687373  0.00000000       0.010
   0.00000000  0.09556110  0.00000000       0.010
   0.00000000  0.10424847  0.00000000       0.010
   0.00000000  0.11293585  0.00000000       0.010
   0.00000000  0.12162322  0.00000000       0.010
   0.00000000  0.13031059  0.00000000       0.010
   0.00000000  0.13899796  0.00000000       0.010
   0.00000000  0.14768534  0.00000000       0.010
   0.00000000  0.15637271  0.00000000       0.010
   0.00000000  0.16506008  0.00000000       0.010
   0.00000000  0.16506008  0.00000000       0.010
   0.00434369  0.16506008 -0.00000000       0.010
   0.00868737  0.16506008  0.00000000       0.010
   0.01303106  0.16506008  0.00000000       0.010
   0.01737475  0.16506008  0.00000000       0.010
   0.02171843  0.16506008  0.00000000       0.010
   0.02606212  0.16506008 -0.00000000       0.010
   0.03040580  0.16506008  0.00000000       0.010
   0.03474949  0.16506008  0.00000000       0.010
   0.03909318  0.16506008  0.00000000       0.010
   0.04343686  0.16506008  0.00000000       0.010
   0.04778055  0.16506008  0.00000000       0.010
   0.05212424  0.16506008  0.00000000       0.010
   0.05646792  0.16506008  0.00000000       0.010
   0.06081161  0.16506008 -0.00000000       0.010
   0.06515530  0.16506008 -0.00000000       0.010
   0.06949898  0.16506008  0.00000000       0.010
   0.07384267  0.16506008  0.00000000       0.010
   0.07818635  0.16506008  0.00000000       0.010
   0.08253004  0.16506008  0.00000000       0.010
   0.08253004  0.16506008  0.00000000       0.010
   0.08253004  0.16071640  0.00434369       0.010
   0.08253004  0.15637271  0.00868737       0.010
   0.08253004  0.15202902  0.01303106       0.010
   0.08253004  0.14768534  0.01737475       0.010
   0.08253004  0.14334165  0.02171843       0.010
   0.08253004  0.13899796  0.02606212       0.010
   0.08253004  0.13465428  0.03040580       0.010
   0.08253004  0.13031059  0.03474949       0.010
   0.08253004  0.12596690  0.03909318       0.010
   0.08253004  0.12162322  0.04343686       0.010
   0.08253004  0.11727953  0.04778055       0.010
   0.08253004  0.11293585  0.05212424       0.010
   0.08253004  0.10859216  0.05646792       0.010
   0.08253004  0.10424847  0.06081161       0.010
   0.08253004  0.09990479  0.06515530       0.010
   0.08253004  0.09556110  0.06949898       0.010
   0.08253004  0.09121741  0.07384267       0.010
   0.08253004  0.08687373  0.07818635       0.010
   0.08253004  0.08253004  0.08253004       0.010
   0.08253004  0.08253004  0.08253004       0.010
   0.07818635  0.07818635  0.07818635       0.010
   0.07384267  0.07384267  0.07384267       0.010
   0.06949898  0.06949898  0.06949898       0.010
   0.06515530  0.06515530  0.06515530       0.010
   0.06081161  0.06081161  0.06081161       0.010
   0.05646792  0.05646792  0.05646792       0.010
   0.05212424  0.05212424  0.05212424       0.010
   0.04778055  0.04778055  0.04778055       0.010
   0.04343686  0.04343686  0.04343686       0.010
   0.03909318  0.03909318  0.03909318       0.010
   0.03474949  0.03474949  0.03474949       0.010
   0.03040580  0.03040580  0.03040580       0.010
   0.02606212  0.02606212  0.02606212       0.010
   0.02171843  0.02171843  0.02171843       0.010
   0.01737475  0.01737475  0.01737475       0.010
   0.01303106  0.01303106  0.01303106       0.010
   0.00868737  0.00868737  0.00868737       0.010
   0.00434369  0.00434369  0.00434369       0.010
   0.00000000  0.00000000  0.00000000       0.010
   0.00000000  0.00000000  0.00000000       0.010
   0.00651553  0.00651553  0.00000000       0.010
   0.01303106  0.01303106  0.00000000       0.010
   0.01954659  0.01954659  0.00000000       0.010
   0.02606212  0.02606212  0.00000000       0.010
   0.03257765  0.03257765  0.00000000       0.010
   0.03909318  0.03909318  0.00000000       0.010
   0.04560871  0.04560871  0.00000000       0.010
   0.05212424  0.05212424  0.00000000       0.010
   0.05863977  0.05863977  0.00000000       0.010
   0.06515530  0.06515530  0.00000000       0.010
   0.07167083  0.07167083  0.00000000       0.010
   0.07818635  0.07818635  0.00000000       0.010
   0.08470188  0.08470188  0.00000000       0.010
   0.09121741  0.09121741  0.00000000       0.010
   0.09773294  0.09773294  0.00000000       0.010
   0.10424847  0.10424847  0.00000000       0.010
   0.11076400  0.11076400  0.00000000       0.010
   0.11727953  0.11727953  0.00000000       0.010
   0.12379506  0.12379506  0.00000000       0.010
 
 k-points in reciprocal lattice and weights: band                                    
   0.00000000  0.00000000  0.00000000       0.010
   0.02631579  0.00000000  0.02631579       0.010
   0.05263158  0.00000000  0.05263158       0.010
   0.07894737  0.00000000  0.07894737       0.010
   0.10526316  0.00000000  0.10526316       0.010
   0.13157895  0.00000000  0.13157895       0.010
   0.15789474  0.00000000  0.15789474       0.010
   0.18421053  0.00000000  0.18421053       0.010
   0.21052632  0.00000000  0.21052632       0.010
   0.23684211  0.00000000  0.23684211       0.010
   0.26315789  0.00000000  0.26315789       0.010
   0.28947368  0.00000000  0.28947368       0.010
   0.31578947  0.00000000  0.31578947       0.010
   0.34210526  0.00000000  0.34210526       0.010
   0.36842105  0.00000000  0.36842105       0.010
   0.39473684  0.00000000  0.39473684       0.010
   0.42105263  0.00000000  0.42105263       0.010
   0.44736842  0.00000000  0.44736842       0.010
   0.47368421  0.00000000  0.47368421       0.010
   0.50000000  0.00000000  0.50000000       0.010
   0.50000000  0.00000000  0.50000000       0.010
   0.50000000  0.01315789  0.51315789       0.010
   0.50000000  0.02631579  0.52631579       0.010
   0.50000000  0.03947368  0.53947368       0.010
   0.50000000  0.05263158  0.55263158       0.010
   0.50000000  0.06578947  0.56578947       0.010
   0.50000000  0.07894737  0.57894737       0.010
   0.50000000  0.09210526  0.59210526       0.010
   0.50000000  0.10526316  0.60526316       0.010
   0.50000000  0.11842105  0.61842105       0.010
   0.50000000  0.13157895  0.63157895       0.010
   0.50000000  0.14473684  0.64473684       0.010
   0.50000000  0.15789474  0.65789474       0.010
   0.50000000  0.17105263  0.67105263       0.010
   0.50000000  0.18421053  0.68421053       0.010
   0.50000000  0.19736842  0.69736842       0.010
   0.50000000  0.21052632  0.71052632       0.010
   0.50000000  0.22368421  0.72368421       0.010
   0.50000000  0.23684211  0.73684211       0.010
   0.50000000  0.25000000  0.75000000       0.010
   0.50000000  0.25000000  0.75000000       0.010
   0.50000000  0.26315789  0.73684211       0.010
   0.50000000  0.27631579  0.72368421       0.010
   0.50000000  0.28947368  0.71052632       0.010
   0.50000000  0.30263158  0.69736842       0.010
   0.50000000  0.31578947  0.68421053       0.010
   0.50000000  0.32894737  0.67105263       0.010
   0.50000000  0.34210526  0.65789474       0.010
   0.50000000  0.35526316  0.64473684       0.010
   0.50000000  0.36842105  0.63157895       0.010
   0.50000000  0.38157895  0.61842105       0.010
   0.50000000  0.39473684  0.60526316       0.010
   0.50000000  0.40789474  0.59210526       0.010
   0.50000000  0.42105263  0.57894737       0.010
   0.50000000  0.43421053  0.56578947       0.010
   0.50000000  0.44736842  0.55263158       0.010
   0.50000000  0.46052632  0.53947368       0.010
   0.50000000  0.47368421  0.52631579       0.010
   0.50000000  0.48684211  0.51315789       0.010
   0.50000000  0.50000000  0.50000000       0.010
   0.50000000  0.50000000  0.50000000       0.010
   0.47368421  0.47368421  0.47368421       0.010
   0.44736842  0.44736842  0.44736842       0.010
   0.42105263  0.42105263  0.42105263       0.010
   0.39473684  0.39473684  0.39473684       0.010
   0.36842105  0.36842105  0.36842105       0.010
   0.34210526  0.34210526  0.34210526       0.010
   0.31578947  0.31578947  0.31578947       0.010
   0.28947368  0.28947368  0.28947368       0.010
   0.26315789  0.26315789  0.26315789       0.010
   0.23684211  0.23684211  0.23684211       0.010
   0.21052632  0.21052632  0.21052632       0.010
   0.18421053  0.18421053  0.18421053       0.010
   0.15789474  0.15789474  0.15789474       0.010
   0.13157895  0.13157895  0.13157895       0.010
   0.10526316  0.10526316  0.10526316       0.010
   0.07894737  0.07894737  0.07894737       0.010
   0.05263158  0.05263158  0.05263158       0.010
   0.02631579  0.02631579  0.02631579       0.010
   0.00000000  0.00000000  0.00000000       0.010
   0.00000000  0.00000000  0.00000000       0.010
   0.01973684  0.01973684  0.03947368       0.010
   0.03947368  0.03947368  0.07894737       0.010
   0.05921053  0.05921053  0.11842105       0.010
   0.07894737  0.07894737  0.15789474       0.010
   0.09868421  0.09868421  0.19736842       0.010
   0.11842105  0.11842105  0.23684211       0.010
   0.13815789  0.13815789  0.27631579       0.010
   0.15789474  0.15789474  0.31578947       0.010
   0.17763158  0.17763158  0.35526316       0.010
   0.19736842  0.19736842  0.39473684       0.010
   0.21710526  0.21710526  0.43421053       0.010
   0.23684211  0.23684211  0.47368421       0.010
   0.25657895  0.25657895  0.51315789       0.010
   0.27631579  0.27631579  0.55263158       0.010
   0.29605263  0.29605263  0.59210526       0.010
   0.31578947  0.31578947  0.63157895       0.010
   0.33552632  0.33552632  0.67105263       0.010
   0.35526316  0.35526316  0.71052632       0.010
   0.37500000  0.37500000  0.75000000       0.010
 
 position of ions in fractional coordinates (direct lattice) 
   0.00000000  0.00000000  0.00000000
   0.25000000  0.25000000  0.25000000
 
 position of ions in cartesian coordinates  (Angst):
   0.00000000  0.00000000  0.00000000
   1.51460000  1.51460000  1.51460000
 
 Euler angles ALPHA=     0.0000000  BETA=     0.0000000

 transformation matrix from SAXIS to cartesian coordinates
 ---------------------------------------------------------
     1.0000000 m_x     0.0000000 m_y     0.0000000 m_z
     0.0000000 m_x     1.0000000 m_y     0.0000000 m_z
     0.0000000 m_x     0.0000000 m_y     1.0000000 m_z

 transformation matrix from cartesian coordinates to SAXIS
 ---------------------------------------------------------
     1.0000000 m_x     0.0000000 m_y     0.0000000 m_z
     0.0000000 m_x     1.0000000 m_y     0.0000000 m_z
     0.0000000 m_x     0.0000000 m_y     1.0000000 m_z




--------------------------------------------------------------------------------------------------------


 k-point  1 :   0.0000 0.0000 0.0000  plane waves:    1290
 k-point  2 :   0.0263 0.0000 0.0263  plane waves:    1290
 k-point  3 :   0.0526 0.0000 0.0526  plane waves:    1274
 k-point  4 :   0.0789 0.0000 0.0789  plane waves:    1290
 k-point  5 :   0.1053 0.0000 0.1053  plane waves:    1314
 k-point  6 :   0.1316 0.0000 0.1316  plane waves:    1330
 k-point  7 :   0.1579 0.0000 0.1579  plane waves:    1314
 k-point  8 :   0.1842 0.0000 0.1842  plane waves:    1306
 k-point  9 :   0.2105 0.0000 0.2105  plane waves:    1298
 k-point 10 :   0.2368 0.0000 0.2368  plane waves:    1298
 k-point 11 :   0.2632 0.0000 0.2632  plane waves:    1298
 k-point 12 :   0.2895 0.0000 0.2895  plane waves:    1304
 k-point 13 :   0.3158 0.0000 0.3158  plane waves:    1288
 k-point 14 :   0.3421 0.0000 0.3421  plane waves:    1288
 k-point 15 :   0.3684 0.0000 0.3684  plane waves:    1304
 k-point 16 :   0.3947 0.0000 0.3947  plane waves:    1320
 k-point 17 :   0.4211 0.0000 0.4211  plane waves:    1320
 k-point 18 :   0.4474 0.0000 0.4474  plane waves:    1320
 k-point 19 :   0.4737 0.0000 0.4737  plane waves:    1312
 k-point 20 :   0.5000 0.0000 0.5000  plane waves:    1304
 k-point 21 :   0.5000 0.0000 0.5000  plane waves:    1304
 k-point 22 :   0.5000 0.0132 0.5132  plane waves:    1292
 k-point 23 :   0.5000 0.0263 0.5263  plane waves:    1292
 k-point 24 :   0.5000 0.0395 0.5395  plane waves:    1304
 k-point 25 :   0.5000 0.0526 0.5526  plane waves:    1308
 k-point 26 :   0.5000 0.0658 0.5658  plane waves:    1308
 k-point 27 :   0.5000 0.0789 0.5789  plane waves:    1324
 k-point 28 :   0.5000 0.0921 0.5921  plane waves:    1324
 k-point 29 :   0.5000 0.1053 0.6053  plane waves:    1324
 k-point 30 :   0.5000 0.1184 0.6184  plane waves:    1324
 k-point 31 :   0.5000 0.1316 0.6316  plane waves:    1324
 k-point 32 :   0.5000 0.1447 0.6447  plane waves:    1324
 k-point 33 :   0.5000 0.1579 0.6579  plane waves:    1316
 k-point 34 :   0.5000 0.1711 0.6711  plane waves:    1324
 k-point 35 :   0.5000 0.1842 0.6842  plane waves:    1332
 k-point 36 :   0.5000 0.1974 0.6974  plane waves:    1332
 k-point 37 :   0.5000 0.2105 0.7105  plane waves:    1332
 k-point 38 :   0.5000 0.2237 0.7237  plane waves:    1332
 k-point 39 :   0.5000 0.2368 0.7368  plane waves:    1324
 k-point 40 :   0.5000 0.2500 0.7500  plane waves:    1296
 k-point 41 :   0.5000 0.2500 0.7500  plane waves:    1296
 k-point 42 :   0.5000 0.2632 0.7368  plane waves:    1332
 k-point 43 :   0.5000 0.2763 0.7237  plane waves:    1332
 k-point 44 :   0.5000 0.2895 0.7105  plane waves:    1332
 k-point 45 :   0.5000 0.3026 0.6974  plane waves:    1332
 k-point 46 :   0.5000 0.3158 0.6842  plane waves:    1328
 k-point 47 :   0.5000 0.3289 0.6711  plane waves:    1320
 k-point 48 :   0.5000 0.3421 0.6579  plane waves:    1320
 k-point 49 :   0.5000 0.3553 0.6447  plane waves:    1324
 k-point 50 :   0.5000 0.3684 0.6316  plane waves:    1332
 k-point 51 :   0.5000 0.3816 0.6184  plane waves:    1332
 k-point 52 :   0.5000 0.3947 0.6053  plane waves:    1324
 k-point 53 :   0.5000 0.4079 0.5921  plane waves:    1320
 k-point 54 :   0.5000 0.4211 0.5789  plane waves:    1316
 k-point 55 :   0.5000 0.4342 0.5658  plane waves:    1312
 k-point 56 :   0.5000 0.4474 0.5526  plane waves:    1316
 k-point 57 :   0.5000 0.4605 0.5395  plane waves:    1304
 k-point 58 :   0.5000 0.4737 0.5263  plane waves:    1288
 k-point 59 :   0.5000 0.4868 0.5132  plane waves:    1300
 k-point 60 :   0.5000 0.5000 0.5000  plane waves:    1304
 k-point 61 :   0.5000 0.5000 0.5000  plane waves:    1304
 k-point 62 :   0.4737 0.4737 0.4737  plane waves:    1292
 k-point 63 :   0.4474 0.4474 0.4474  plane waves:    1292
 k-point 64 :   0.4211 0.4211 0.4211  plane waves:    1292
 k-point 65 :   0.3947 0.3947 0.3947  plane waves:    1316
 k-point 66 :   0.3684 0.3684 0.3684  plane waves:    1316
 k-point 67 :   0.3421 0.3421 0.3421  plane waves:    1304
 k-point 68 :   0.3158 0.3158 0.3158  plane waves:    1292
 k-point 69 :   0.2895 0.2895 0.2895  plane waves:    1280
 k-point 70 :   0.2632 0.2632 0.2632  plane waves:    1280
 k-point 71 :   0.2368 0.2368 0.2368  plane waves:    1292
 k-point 72 :   0.2105 0.2105 0.2105  plane waves:    1298
 k-point 73 :   0.1842 0.1842 0.1842  plane waves:    1292
 k-point 74 :   0.1579 0.1579 0.1579  plane waves:    1298
 k-point 75 :   0.1316 0.1316 0.1316  plane waves:    1298
 k-point 76 :   0.1053 0.1053 0.1053  plane waves:    1298
 k-point 77 :   0.0789 0.0789 0.0789  plane waves:    1280
 k-point 78 :   0.0526 0.0526 0.0526  plane waves:    1278
 k-point 79 :   0.0263 0.0263 0.0263  plane waves:    1290
 k-point 80 :   0.0000 0.0000 0.0000  plane waves:    1290
 k-point 81 :   0.0000 0.0000 0.0000  plane waves:    1290
 k-point 82 :   0.0197 0.0197 0.0395  plane waves:    1290
 k-point 83 :   0.0395 0.0395 0.0789  plane waves:    1288
 k-point 84 :   0.0592 0.0592 0.1184  plane waves:    1288
 k-point 85 :   0.0789 0.0789 0.1579  plane waves:    1300
 k-point 86 :   0.0987 0.0987 0.1974  plane waves:    1308
 k-point 87 :   0.1184 0.1184 0.2368  plane waves:    1308
 k-point 88 :   0.1382 0.1382 0.2763  plane waves:    1304
 k-point 89 :   0.1579 0.1579 0.3158  plane waves:    1288
 k-point 90 :   0.1776 0.1776 0.3553  plane waves:    1288
 k-point 91 :   0.1974 0.1974 0.3947  plane waves:    1296
 k-point 92 :   0.2171 0.2171 0.4342  plane waves:    1300
 k-point 93 :   0.2368 0.2368 0.4737  plane waves:    1316
 k-point 94 :   0.2566 0.2566 0.5132  plane waves:    1312
 k-point 95 :   0.2763 0.2763 0.5526  plane waves:    1324
 k-point 96 :   0.2961 0.2961 0.5921  plane waves:    1332
 k-point 97 :   0.3158 0.3158 0.6316  plane waves:    1332
 k-point 98 :   0.3355 0.3355 0.6711  plane waves:    1332
 k-point 99 :   0.3553 0.3553 0.7105  plane waves:    1340
 k-point ** :   0.3750 0.3750 0.7500  plane waves:    1340

 maximum and minimum number of plane-waves per node :      1340     1274

 maximum number of plane-waves:      1340
 maximum index in each direction: 
   IXMAX=    6   IYMAX=    6   IZMAX=    6
   IXMIN=   -6   IYMIN=   -6   IZMIN=   -6


 serial   3D FFT for wavefunctions
 parallel 3D FFT for charge:
    minimum data exchange during FFTs selected (reduces bandwidth)


 total amount of memory used by VASP MPI-rank0    52245. kBytes
=======================================================================

   base      :      30000. kBytes
   nonl-proj :      13999. kBytes
   fftplans  :        138. kBytes
   grid      :       1057. kBytes
   one-center:         64. kBytes
   wavefun   :       6987. kBytes
 
     INWAV:  cpu time    0.3100: real time    0.3105
 initial charge density was supplied:
 number of electron       8.0000011 magnetization       0.0000000     -0.0000000     -0.0000000
 keeping initial charge density in first step


--------------------------------------------------------------------------------------------------------


 Maximum index for augmentation-charges          559 (set IRDMAX)


--------------------------------------------------------------------------------------------------------


 First call to EWALD:  gamma=   0.464
 Maximum number of real-space cells 3x 3x 3
 Maximum number of reciprocal cells 3x 3x 3

    FEWALD:  cpu time    0.0016: real time    0.0032

