 running on   54 total cores
 distrk:  each k-point on    9 cores,    6 groups
 distr:  one band on    3 cores,    3 groups
 using from now: INCAR     
 vasp.5.4.4.18Apr17-6-g9f103f2a35 (build Sep 10 2021 22:26:18) complex          
  
 POSCAR found type information on POSCAR  In As
 POSCAR found :  2 types and       2 ions
 scaLAPACK will be used

 ----------------------------------------------------------------------------- 
|                                                                             |
|           W    W    AA    RRRRR   N    N  II  N    N   GGGG   !!!           |
|           W    W   A  A   R    R  NN   N  II  NN   N  G    G  !!!           |
|           W    W  A    A  R    R  N N  N  II  N N  N  G       !!!           |
|           W WW W  AAAAAA  RRRRR   N  N N  II  N  N N  G  GGG   !            |
|           WW  WW  A    A  R   R   N   NN  II  N   NN  G    G                |
|           W    W  A    A  R    R  N    N  II  N    N   GGGG   !!!           |
|                                                                             |
|      For optimal performance we recommend to set                            |
|        NCORE= 4 - approx SQRT( number of cores)                             |
|      NCORE specifies how many cores store one orbital (NPAR=cpu/NCORE).     |
|      This setting can  greatly improve the performance of VASP for DFT.     |
|      The default,   NCORE=1            might be grossly inefficient         |
|      on modern multi-core architectures or massively parallel machines.     |
|      Do your own testing !!!!                                               |
|      Unfortunately you need to use the default for GW and RPA calculations. |
|      (for HF NCORE is supported but not extensively tested yet)             |
|                                                                             |
 ----------------------------------------------------------------------------- 


 ----------------------------------------------------------------------------- 
|                                                                             |
|           W    W    AA    RRRRR   N    N  II  N    N   GGGG   !!!           |
|           W    W   A  A   R    R  NN   N  II  NN   N  G    G  !!!           |
|           W    W  A    A  R    R  N N  N  II  N N  N  G       !!!           |
|           W WW W  AAAAAA  RRRRR   N  N N  II  N  N N  G  GGG   !            |
|           WW  WW  A    A  R   R   N   NN  II  N   NN  G    G                |
|           W    W  A    A  R    R  N    N  II  N    N   GGGG   !!!           |
|                                                                             |
|      You have enabled k-point parallelism (KPAR>1).                         |
|      This developmental code was originally  written by Paul Kent at ORNL,  |
|      and carefully double checked in Vienna.                                |
|      GW as well as linear response parallelism added by Martijn Marsman     |
|      and Georg Kresse.                                                      |
|      Carefully verify results versus KPAR=1.                                |
|      Report problems to Paul Kent and Vienna.                               |
|                                                                             |
 ----------------------------------------------------------------------------- 

 LDA part: xc-table for Pade appr. of Perdew
 found WAVECAR, reading the header
  number of k-points has changed, file:    30 present:   250
  trying to continue reading WAVECAR, but it might fail
 WARNING: stress and forces are not correct
 POSCAR, INCAR and KPOINTS ok, starting setup
 FFT: planning ...
 reading WAVECAR
 the WAVECAR file was read successfully
 reading imaginary part of occupancies ...
 charge-density read from file: unknown                                 
 reading imaginary part of occupancies ...
 magnetization density read from file 1
 reading imaginary part of occupancies ...
 magnetization density read from file 2
 reading imaginary part of occupancies ...
 magnetization density read from file 3
 entering main loop
       N       E                     dE             d eps       ncg     rms          ort
 gam= 0.000 g(H,U,f)=  0.138E+02 0.194E+02-0.162E-10 ort(H,U,f) = 0.000E+00 0.000E+00 0.000E+00
SDA:   1     0.500955772877E+02    0.50096E+02   -0.13269E+02  5250   0.332E+02 0.000E+00
 gam= 0.382 g(H,U,f)=  0.894E+01 0.186E+02-0.756E+00 ort(H,U,f) = 0.961E+01 0.207E+02-0.109E+01
DMP:   2     0.375562128545E+02   -0.12539E+02   -0.15184E+02  5250   0.268E+02 0.292E+02
 gam= 0.382 g(H,U,f)=  0.496E+01 0.252E+02 0.468E+00 ort(H,U,f) = 0.650E+01 0.432E+02 0.145E+01
DMP:   3     0.183436673532E+02   -0.19213E+02   -0.20073E+02  5250   0.306E+02 0.512E+02
 gam= 0.382 g(H,U,f)=  0.168E+01 0.977E+01 0.695E-01 ort(H,U,f) = 0.127E+01 0.212E+02 0.418E+00
DMP:   4     0.261216867473E+01   -0.15731E+02   -0.81013E+01  5250   0.115E+02 0.229E+02
 gam= 0.382 g(H,U,f)=  0.958E+00 0.358E+01 0.237E+00 ort(H,U,f) = 0.292E+00 0.850E+01-0.939E-01
DMP:   5    -0.328750319926E+01   -0.58997E+01   -0.32387E+01  5250   0.477E+01 0.870E+01
 gam= 0.382 g(H,U,f)=  0.546E+00 0.174E+01 0.343E+00 ort(H,U,f) = 0.398E+00 0.460E+01 0.321E+00
DMP:   6    -0.603200469431E+01   -0.27445E+01   -0.18647E+01  5250   0.263E+01 0.532E+01
 gam= 0.382 g(H,U,f)=  0.257E+00 0.853E+00 0.912E+00 ort(H,U,f) = 0.327E+00 0.248E+01 0.188E+01
DMP:   7    -0.765587344237E+01   -0.16239E+01   -0.15242E+01  5250   0.202E+01 0.468E+01
 gam= 0.382 g(H,U,f)=  0.905E-01 0.408E+00-0.717E-02 ort(H,U,f) = 0.157E+00 0.127E+01-0.225E-01
DMP:   8    -0.863472586019E+01   -0.97885E+00   -0.41203E+00  5250   0.492E+00 0.141E+01
 gam= 0.382 g(H,U,f)=  0.281E-01 0.203E+00 0.433E-02 ort(H,U,f) = 0.398E-01 0.668E+00 0.110E-01
DMP:   9    -0.901007191119E+01   -0.37535E+00   -0.20388E+00  5250   0.235E+00 0.719E+00
 gam= 0.382 g(H,U,f)=  0.117E-01 0.980E-01 0.932E-03 ort(H,U,f) = 0.652E-02 0.341E+00 0.308E-02
DMP:  10    -0.918292006920E+01   -0.17285E+00   -0.97822E-01  5250   0.111E+00 0.351E+00
 gam= 0.382 g(H,U,f)=  0.513E-02 0.449E-01 0.245E-03 ort(H,U,f) = 0.266E-02 0.165E+00 0.817E-03
DMP:  11    -0.926650741127E+01   -0.83587E-01   -0.45876E-01  5250   0.503E-01 0.169E+00
 gam= 0.382 g(H,U,f)=  0.181E-02 0.193E-01-0.441E-04 ort(H,U,f) = 0.136E-02 0.747E-01-0.169E-03
DMP:  12    -0.930492720916E+01   -0.38420E-01   -0.20017E-01  5250   0.210E-01 0.759E-01
 gam= 0.382 g(H,U,f)=  0.662E-03 0.771E-02-0.123E-04 ort(H,U,f) = 0.389E-03 0.316E-01-0.443E-04
DMP:  13    -0.932143795360E+01   -0.16511E-01   -0.82222E-02  5250   0.836E-02 0.319E-01
 gam= 0.382 g(H,U,f)=  0.301E-03 0.286E-02-0.162E-05 ort(H,U,f) = 0.150E-03 0.124E-01-0.545E-05
DMP:  14    -0.932809223038E+01   -0.66543E-02   -0.31762E-02  5250   0.316E-02 0.125E-01
 gam= 0.382 g(H,U,f)=  0.128E-03 0.982E-03 0.526E-05 ort(H,U,f) = 0.108E-03 0.452E-02 0.202E-04
DMP:  15    -0.933061903538E+01   -0.25268E-02   -0.11564E-02  5250   0.112E-02 0.465E-02
 gam= 0.382 g(H,U,f)=  0.441E-04 0.314E-03 0.436E-05 ort(H,U,f) = 0.529E-04 0.154E-02 0.182E-04
DMP:  16    -0.933152255609E+01   -0.90352E-03   -0.39190E-03  5250   0.363E-03 0.161E-02
 gam= 0.382 g(H,U,f)=  0.145E-04 0.934E-04 0.200E-05 ort(H,U,f) = 0.148E-04 0.493E-03 0.902E-05
DMP:  17    -0.933182250003E+01   -0.29994E-03   -0.12300E-03  5250   0.110E-03 0.517E-03
 gam= 0.382 g(H,U,f)=  0.586E-05 0.255E-04 0.717E-06 ort(H,U,f) = 0.330E-05 0.146E-03 0.347E-05
DMP:  18    -0.933191474621E+01   -0.92246E-04   -0.36215E-04  5250   0.320E-04 0.153E-03
 gam= 0.382 g(H,U,f)=  0.242E-05 0.622E-05 0.222E-06 ort(H,U,f) = 0.147E-05 0.396E-04 0.116E-05
DMP:  19    -0.933194131435E+01   -0.26568E-04   -0.99909E-05  5250   0.886E-05 0.422E-04
 gam= 0.382 g(H,U,f)=  0.852E-06 0.133E-05 0.612E-07 ort(H,U,f) = 0.667E-06 0.939E-05 0.348E-06
DMP:  20    -0.933194839563E+01   -0.70813E-05   -0.24888E-05  5250   0.225E-05 0.104E-04
 final diagonalization
   1 F= -.93319484E+01 E0= -.93320405E+01  d E =0.276175E-03  mag=    -0.0000     0.0000    -0.0000
