<?xml version="1.0" encoding="ISO-8859-1"?>
<modeling>
 <generator>
  <i name="program" type="string">vasp </i>
  <i name="version" type="string">5.4.4.18Apr17-6-g9f103f2a35  </i>
  <i name="subversion" type="string">(build Nov 08 2017 12:56:59) complex            parallel </i>
  <i name="platform" type="string">LinuxIFC </i>
  <i name="date" type="string">2021 06 03 </i>
  <i name="time" type="string">11:58:12 </i>
 </generator>
 <incar>
  <i type="string" name="PREC">n</i>
  <i type="string" name="ALGO"> Fast</i>
  <i type="logical" name="LSORBIT"> T  </i>
  <v name="SAXIS">      0.00000000      0.00000000      1.00000000</v>
  <i type="int" name="ISPIN">     2</i>
  <i name="BMIX">      3.00000000</i>
  <i name="AMIN">      0.01000000</i>
  <i type="int" name="ICHARG">    11</i>
  <i name="EDIFF">      0.00001000</i>
  <i name="ENCUT">    400.00000000</i>
  <i type="int" name="NBANDS">    21</i>
  <v name="MAGMOM">      0.00000000      0.00000000      0.00000000      0.00000000      0.00000000      0.00000000</v>
  <i name="SIGMA">      0.05000000</i>
  <i type="int" name="LMAXMIX">     4</i>
  <i type="logical" name="LWAVE"> F  </i>
  <i type="logical" name="LCHARG"> F  </i>
  <v type="int" name="KPOINT_BSE">    -1     0     0     0</v>
  <i type="string" name="GGA"> PE</i>
  <i type="logical" name="LDAU"> T  </i>
  <v type="int" name="LDAUL">     1     1</v>
  <v name="LDAUU">     -0.08300000     -7.01400000</v>
  <v name="LDAUJ">      0.00000000      0.00000000</v>
 </incar>
 <structure name="primitive_cell" >
  <crystal>
   <varray name="basis" >
    <v>       0.00000000       3.02920000       3.02920000 </v>
    <v>       3.02920000       0.00000000       3.02920000 </v>
    <v>       3.02920000       3.02920000       0.00000000 </v>
   </varray>
   <i name="volume">     55.59219731 </i>
   <varray name="rec_basis" >
    <v>      -0.16506008       0.16506008       0.16506008 </v>
    <v>       0.16506008      -0.16506008       0.16506008 </v>
    <v>       0.16506008       0.16506008      -0.16506008 </v>
   </varray>
  </crystal>
  <varray name="positions" >
   <v>       0.00000000       0.00000000       0.00000000 </v>
   <v>      -0.25000000      -0.25000000      -0.25000000 </v>
  </varray>
 </structure>
 <varray name="primitive_index" >
  <v type="int" >        1 </v>
  <v type="int" >        2 </v>
 </varray>
 <kpoints>
  <generation param="listgenerated">
   <i name="divisions" type="int">      50 </i>
   <v>       0.00000000       0.00000000       0.00000000 </v>
   <v>       0.50000000       0.00000000       0.50000000 </v>
   <v>       0.50000000       0.25000000       0.75000000 </v>
   <v>       0.50000000       0.50000000       0.50000000 </v>
   <v>       0.00000000       0.00000000       0.00000000 </v>
   <v>       0.37500000       0.37500000       0.75000000 </v>
  </generation>
  <varray name="kpointlist" >
   <v>       0.00000000       0.00000000       0.00000000 </v>
   <v>       0.01020408       0.00000000       0.01020408 </v>
   <v>       0.02040816       0.00000000       0.02040816 </v>
   <v>       0.03061224       0.00000000       0.03061224 </v>
   <v>       0.04081633       0.00000000       0.04081633 </v>
   <v>       0.05102041       0.00000000       0.05102041 </v>
   <v>       0.06122449       0.00000000       0.06122449 </v>
   <v>       0.07142857       0.00000000       0.07142857 </v>
   <v>       0.08163265       0.00000000       0.08163265 </v>
   <v>       0.09183673       0.00000000       0.09183673 </v>
   <v>       0.10204082       0.00000000       0.10204082 </v>
   <v>       0.11224490       0.00000000       0.11224490 </v>
   <v>       0.12244898       0.00000000       0.12244898 </v>
   <v>       0.13265306       0.00000000       0.13265306 </v>
   <v>       0.14285714       0.00000000       0.14285714 </v>
   <v>       0.15306122       0.00000000       0.15306122 </v>
   <v>       0.16326531       0.00000000       0.16326531 </v>
   <v>       0.17346939       0.00000000       0.17346939 </v>
   <v>       0.18367347       0.00000000       0.18367347 </v>
   <v>       0.19387755       0.00000000       0.19387755 </v>
   <v>       0.20408163       0.00000000       0.20408163 </v>
   <v>       0.21428571       0.00000000       0.21428571 </v>
   <v>       0.22448980       0.00000000       0.22448980 </v>
   <v>       0.23469388       0.00000000       0.23469388 </v>
   <v>       0.24489796       0.00000000       0.24489796 </v>
   <v>       0.25510204       0.00000000       0.25510204 </v>
   <v>       0.26530612       0.00000000       0.26530612 </v>
   <v>       0.27551020       0.00000000       0.27551020 </v>
   <v>       0.28571429       0.00000000       0.28571429 </v>
   <v>       0.29591837       0.00000000       0.29591837 </v>
   <v>       0.30612245       0.00000000       0.30612245 </v>
   <v>       0.31632653       0.00000000       0.31632653 </v>
   <v>       0.32653061       0.00000000       0.32653061 </v>
   <v>       0.33673469       0.00000000       0.33673469 </v>
   <v>       0.34693878       0.00000000       0.34693878 </v>
   <v>       0.35714286       0.00000000       0.35714286 </v>
   <v>       0.36734694       0.00000000       0.36734694 </v>
   <v>       0.37755102       0.00000000       0.37755102 </v>
   <v>       0.38775510       0.00000000       0.38775510 </v>
   <v>       0.39795918       0.00000000       0.39795918 </v>
   <v>       0.40816327       0.00000000       0.40816327 </v>
   <v>       0.41836735       0.00000000       0.41836735 </v>
   <v>       0.42857143       0.00000000       0.42857143 </v>
   <v>       0.43877551       0.00000000       0.43877551 </v>
   <v>       0.44897959       0.00000000       0.44897959 </v>
   <v>       0.45918367       0.00000000       0.45918367 </v>
   <v>       0.46938776       0.00000000       0.46938776 </v>
   <v>       0.47959184       0.00000000       0.47959184 </v>
   <v>       0.48979592       0.00000000       0.48979592 </v>
   <v>       0.50000000       0.00000000       0.50000000 </v>
   <v>       0.50000000       0.00000000       0.50000000 </v>
   <v>       0.50000000       0.00510204       0.50510204 </v>
   <v>       0.50000000       0.01020408       0.51020408 </v>
   <v>       0.50000000       0.01530612       0.51530612 </v>
   <v>       0.50000000       0.02040816       0.52040816 </v>
   <v>       0.50000000       0.02551020       0.52551020 </v>
   <v>       0.50000000       0.03061224       0.53061224 </v>
   <v>       0.50000000       0.03571429       0.53571429 </v>
   <v>       0.50000000       0.04081633       0.54081633 </v>
   <v>       0.50000000       0.04591837       0.54591837 </v>
   <v>       0.50000000       0.05102041       0.55102041 </v>
   <v>       0.50000000       0.05612245       0.55612245 </v>
   <v>       0.50000000       0.06122449       0.56122449 </v>
   <v>       0.50000000       0.06632653       0.56632653 </v>
   <v>       0.50000000       0.07142857       0.57142857 </v>
   <v>       0.50000000       0.07653061       0.57653061 </v>
   <v>       0.50000000       0.08163265       0.58163265 </v>
   <v>       0.50000000       0.08673469       0.58673469 </v>
   <v>       0.50000000       0.09183673       0.59183673 </v>
   <v>       0.50000000       0.09693878       0.59693878 </v>
   <v>       0.50000000       0.10204082       0.60204082 </v>
   <v>       0.50000000       0.10714286       0.60714286 </v>
   <v>       0.50000000       0.11224490       0.61224490 </v>
   <v>       0.50000000       0.11734694       0.61734694 </v>
   <v>       0.50000000       0.12244898       0.62244898 </v>
   <v>       0.50000000       0.12755102       0.62755102 </v>
   <v>       0.50000000       0.13265306       0.63265306 </v>
   <v>       0.50000000       0.13775510       0.63775510 </v>
   <v>       0.50000000       0.14285714       0.64285714 </v>
   <v>       0.50000000       0.14795918       0.64795918 </v>
   <v>       0.50000000       0.15306122       0.65306122 </v>
   <v>       0.50000000       0.15816327       0.65816327 </v>
   <v>       0.50000000       0.16326531       0.66326531 </v>
   <v>       0.50000000       0.16836735       0.66836735 </v>
   <v>       0.50000000       0.17346939       0.67346939 </v>
   <v>       0.50000000       0.17857143       0.67857143 </v>
   <v>       0.50000000       0.18367347       0.68367347 </v>
   <v>       0.50000000       0.18877551       0.68877551 </v>
   <v>       0.50000000       0.19387755       0.69387755 </v>
   <v>       0.50000000       0.19897959       0.69897959 </v>
   <v>       0.50000000       0.20408163       0.70408163 </v>
   <v>       0.50000000       0.20918367       0.70918367 </v>
   <v>       0.50000000       0.21428571       0.71428571 </v>
   <v>       0.50000000       0.21938776       0.71938776 </v>
   <v>       0.50000000       0.22448980       0.72448980 </v>
   <v>       0.50000000       0.22959184       0.72959184 </v>
   <v>       0.50000000       0.23469388       0.73469388 </v>
   <v>       0.50000000       0.23979592       0.73979592 </v>
   <v>       0.50000000       0.24489796       0.74489796 </v>
   <v>       0.50000000       0.25000000       0.75000000 </v>
   <v>       0.50000000       0.25000000       0.75000000 </v>
   <v>       0.50000000       0.25510204       0.74489796 </v>
   <v>       0.50000000       0.26020408       0.73979592 </v>
   <v>       0.50000000       0.26530612       0.73469388 </v>
   <v>       0.50000000       0.27040816       0.72959184 </v>
   <v>       0.50000000       0.27551020       0.72448980 </v>
   <v>       0.50000000       0.28061224       0.71938776 </v>
   <v>       0.50000000       0.28571429       0.71428571 </v>
   <v>       0.50000000       0.29081633       0.70918367 </v>
   <v>       0.50000000       0.29591837       0.70408163 </v>
   <v>       0.50000000       0.30102041       0.69897959 </v>
   <v>       0.50000000       0.30612245       0.69387755 </v>
   <v>       0.50000000       0.31122449       0.68877551 </v>
   <v>       0.50000000       0.31632653       0.68367347 </v>
   <v>       0.50000000       0.32142857       0.67857143 </v>
   <v>       0.50000000       0.32653061       0.67346939 </v>
   <v>       0.50000000       0.33163265       0.66836735 </v>
   <v>       0.50000000       0.33673469       0.66326531 </v>
   <v>       0.50000000       0.34183673       0.65816327 </v>
   <v>       0.50000000       0.34693878       0.65306122 </v>
   <v>       0.50000000       0.35204082       0.64795918 </v>
   <v>       0.50000000       0.35714286       0.64285714 </v>
   <v>       0.50000000       0.36224490       0.63775510 </v>
   <v>       0.50000000       0.36734694       0.63265306 </v>
   <v>       0.50000000       0.37244898       0.62755102 </v>
   <v>       0.50000000       0.37755102       0.62244898 </v>
   <v>       0.50000000       0.38265306       0.61734694 </v>
   <v>       0.50000000       0.38775510       0.61224490 </v>
   <v>       0.50000000       0.39285714       0.60714286 </v>
   <v>       0.50000000       0.39795918       0.60204082 </v>
   <v>       0.50000000       0.40306122       0.59693878 </v>
   <v>       0.50000000       0.40816327       0.59183673 </v>
   <v>       0.50000000       0.41326531       0.58673469 </v>
   <v>       0.50000000       0.41836735       0.58163265 </v>
   <v>       0.50000000       0.42346939       0.57653061 </v>
   <v>       0.50000000       0.42857143       0.57142857 </v>
   <v>       0.50000000       0.43367347       0.56632653 </v>
   <v>       0.50000000       0.43877551       0.56122449 </v>
   <v>       0.50000000       0.44387755       0.55612245 </v>
   <v>       0.50000000       0.44897959       0.55102041 </v>
   <v>       0.50000000       0.45408163       0.54591837 </v>
   <v>       0.50000000       0.45918367       0.54081633 </v>
   <v>       0.50000000       0.46428571       0.53571429 </v>
   <v>       0.50000000       0.46938776       0.53061224 </v>
   <v>       0.50000000       0.47448980       0.52551020 </v>
   <v>       0.50000000       0.47959184       0.52040816 </v>
   <v>       0.50000000       0.48469388       0.51530612 </v>
   <v>       0.50000000       0.48979592       0.51020408 </v>
   <v>       0.50000000       0.49489796       0.50510204 </v>
   <v>       0.50000000       0.50000000       0.50000000 </v>
   <v>       0.50000000       0.50000000       0.50000000 </v>
   <v>       0.48979592       0.48979592       0.48979592 </v>
   <v>       0.47959184       0.47959184       0.47959184 </v>
   <v>       0.46938776       0.46938776       0.46938776 </v>
   <v>       0.45918367       0.45918367       0.45918367 </v>
   <v>       0.44897959       0.44897959       0.44897959 </v>
   <v>       0.43877551       0.43877551       0.43877551 </v>
   <v>       0.42857143       0.42857143       0.42857143 </v>
   <v>       0.41836735       0.41836735       0.41836735 </v>
   <v>       0.40816327       0.40816327       0.40816327 </v>
   <v>       0.39795918       0.39795918       0.39795918 </v>
   <v>       0.38775510       0.38775510       0.38775510 </v>
   <v>       0.37755102       0.37755102       0.37755102 </v>
   <v>       0.36734694       0.36734694       0.36734694 </v>
   <v>       0.35714286       0.35714286       0.35714286 </v>
   <v>       0.34693878       0.34693878       0.34693878 </v>
   <v>       0.33673469       0.33673469       0.33673469 </v>
   <v>       0.32653061       0.32653061       0.32653061 </v>
   <v>       0.31632653       0.31632653       0.31632653 </v>
   <v>       0.30612245       0.30612245       0.30612245 </v>
   <v>       0.29591837       0.29591837       0.29591837 </v>
   <v>       0.28571429       0.28571429       0.28571429 </v>
   <v>       0.27551020       0.27551020       0.27551020 </v>
   <v>       0.26530612       0.26530612       0.26530612 </v>
   <v>       0.25510204       0.25510204       0.25510204 </v>
   <v>       0.24489796       0.24489796       0.24489796 </v>
   <v>       0.23469388       0.23469388       0.23469388 </v>
   <v>       0.22448980       0.22448980       0.22448980 </v>
   <v>       0.21428571       0.21428571       0.21428571 </v>
   <v>       0.20408163       0.20408163       0.20408163 </v>
   <v>       0.19387755       0.19387755       0.19387755 </v>
   <v>       0.18367347       0.18367347       0.18367347 </v>
   <v>       0.17346939       0.17346939       0.17346939 </v>
   <v>       0.16326531       0.16326531       0.16326531 </v>
   <v>       0.15306122       0.15306122       0.15306122 </v>
   <v>       0.14285714       0.14285714       0.14285714 </v>
   <v>       0.13265306       0.13265306       0.13265306 </v>
   <v>       0.12244898       0.12244898       0.12244898 </v>
   <v>       0.11224490       0.11224490       0.11224490 </v>
   <v>       0.10204082       0.10204082       0.10204082 </v>
   <v>       0.09183673       0.09183673       0.09183673 </v>
   <v>       0.08163265       0.08163265       0.08163265 </v>
   <v>       0.07142857       0.07142857       0.07142857 </v>
   <v>       0.06122449       0.06122449       0.06122449 </v>
   <v>       0.05102041       0.05102041       0.05102041 </v>
   <v>       0.04081633       0.04081633       0.04081633 </v>
   <v>       0.03061224       0.03061224       0.03061224 </v>
   <v>       0.02040816       0.02040816       0.02040816 </v>
   <v>       0.01020408       0.01020408       0.01020408 </v>
   <v>       0.00000000       0.00000000       0.00000000 </v>
   <v>       0.00000000       0.00000000       0.00000000 </v>
   <v>       0.00765306       0.00765306       0.01530612 </v>
   <v>       0.01530612       0.01530612       0.03061224 </v>
   <v>       0.02295918       0.02295918       0.04591837 </v>
   <v>       0.03061224       0.03061224       0.06122449 </v>
   <v>       0.03826531       0.03826531       0.07653061 </v>
   <v>       0.04591837       0.04591837       0.09183673 </v>
   <v>       0.05357143       0.05357143       0.10714286 </v>
   <v>       0.06122449       0.06122449       0.12244898 </v>
   <v>       0.06887755       0.06887755       0.13775510 </v>
   <v>       0.07653061       0.07653061       0.15306122 </v>
   <v>       0.08418367       0.08418367       0.16836735 </v>
   <v>       0.09183673       0.09183673       0.18367347 </v>
   <v>       0.09948980       0.09948980       0.19897959 </v>
   <v>       0.10714286       0.10714286       0.21428571 </v>
   <v>       0.11479592       0.11479592       0.22959184 </v>
   <v>       0.12244898       0.12244898       0.24489796 </v>
   <v>       0.13010204       0.13010204       0.26020408 </v>
   <v>       0.13775510       0.13775510       0.27551020 </v>
   <v>       0.14540816       0.14540816       0.29081633 </v>
   <v>       0.15306122       0.15306122       0.30612245 </v>
   <v>       0.16071429       0.16071429       0.32142857 </v>
   <v>       0.16836735       0.16836735       0.33673469 </v>
   <v>       0.17602041       0.17602041       0.35204082 </v>
   <v>       0.18367347       0.18367347       0.36734694 </v>
   <v>       0.19132653       0.19132653       0.38265306 </v>
   <v>       0.19897959       0.19897959       0.39795918 </v>
   <v>       0.20663265       0.20663265       0.41326531 </v>
   <v>       0.21428571       0.21428571       0.42857143 </v>
   <v>       0.22193878       0.22193878       0.44387755 </v>
   <v>       0.22959184       0.22959184       0.45918367 </v>
   <v>       0.23724490       0.23724490       0.47448980 </v>
   <v>       0.24489796       0.24489796       0.48979592 </v>
   <v>       0.25255102       0.25255102       0.50510204 </v>
   <v>       0.26020408       0.26020408       0.52040816 </v>
   <v>       0.26785714       0.26785714       0.53571429 </v>
   <v>       0.27551020       0.27551020       0.55102041 </v>
   <v>       0.28316327       0.28316327       0.56632653 </v>
   <v>       0.29081633       0.29081633       0.58163265 </v>
   <v>       0.29846939       0.29846939       0.59693878 </v>
   <v>       0.30612245       0.30612245       0.61224490 </v>
   <v>       0.31377551       0.31377551       0.62755102 </v>
   <v>       0.32142857       0.32142857       0.64285714 </v>
   <v>       0.32908163       0.32908163       0.65816327 </v>
   <v>       0.33673469       0.33673469       0.67346939 </v>
   <v>       0.34438776       0.34438776       0.68877551 </v>
   <v>       0.35204082       0.35204082       0.70408163 </v>
   <v>       0.35969388       0.35969388       0.71938776 </v>
   <v>       0.36734694       0.36734694       0.73469388 </v>
   <v>       0.37500000       0.37500000       0.75000000 </v>
  </varray>
  <varray name="weights" >
   <v>       0.00400000 </v>
   <v>       0.00400000 </v>
   <v>       0.00400000 </v>
   <v>       0.00400000 </v>
   <v>       0.00400000 </v>
   <v>       0.00400000 </v>
   <v>       0.00400000 </v>
   <v>       0.00400000 </v>
   <v>       0.00400000 </v>
   <v>       0.00400000 </v>
   <v>       0.00400000 </v>
   <v>       0.00400000 </v>
   <v>       0.00400000 </v>
   <v>       0.00400000 </v>
   <v>       0.00400000 </v>
   <v>       0.00400000 </v>
   <v>       0.00400000 </v>
   <v>       0.00400000 </v>
   <v>       0.00400000 </v>
   <v>       0.00400000 </v>
   <v>       0.00400000 </v>
   <v>       0.00400000 </v>
   <v>       0.00400000 </v>
   <v>       0.00400000 </v>
   <v>       0.00400000 </v>
   <v>       0.00400000 </v>
   <v>       0.00400000 </v>
   <v>       0.00400000 </v>
   <v>       0.00400000 </v>
   <v>       0.00400000 </v>
   <v>       0.00400000 </v>
   <v>       0.00400000 </v>
   <v>       0.00400000 </v>
   <v>       0.00400000 </v>
   <v>       0.00400000 </v>
   <v>       0.00400000 </v>
   <v>       0.00400000 </v>
   <v>       0.00400000 </v>
   <v>       0.00400000 </v>
   <v>       0.00400000 </v>
   <v>       0.00400000 </v>
   <v>       0.00400000 </v>
   <v>       0.00400000 </v>
   <v>       0.00400000 </v>
   <v>       0.00400000 </v>
   <v>       0.00400000 </v>
   <v>       0.00400000 </v>
   <v>       0.00400000 </v>
   <v>       0.00400000 </v>
   <v>       0.00400000 </v>
   <v>       0.00400000 </v>
   <v>       0.00400000 </v>
   <v>       0.00400000 </v>
   <v>       0.00400000 </v>
   <v>       0.00400000 </v>
   <v>       0.00400000 </v>
   <v>       0.00400000 </v>
   <v>       0.00400000 </v>
   <v>       0.00400000 </v>
   <v>       0.00400000 </v>
   <v>       0.00400000 </v>
   <v>       0.00400000 </v>
   <v>       0.00400000 </v>
   <v>       0.00400000 </v>
   <v>       0.00400000 </v>
   <v>       0.00400000 </v>
   <v>       0.00400000 </v>
   <v>       0.00400000 </v>
   <v>       0.00400000 </v>
   <v>       0.00400000 </v>
   <v>       0.00400000 </v>
   <v>       0.00400000 </v>
   <v>       0.00400000 </v>
   <v>       0.00400000 </v>
   <v>       0.00400000 </v>
   <v>       0.00400000 </v>
   <v>       0.00400000 </v>
   <v>       0.00400000 </v>
   <v>       0.00400000 </v>
   <v>       0.00400000 </v>
   <v>       0.00400000 </v>
   <v>       0.00400000 </v>
   <v>       0.00400000 </v>
   <v>       0.00400000 </v>
   <v>       0.00400000 </v>
   <v>       0.00400000 </v>
   <v>       0.00400000 </v>
   <v>       0.00400000 </v>
   <v>       0.00400000 </v>
   <v>       0.00400000 </v>
   <v>       0.00400000 </v>
   <v>       0.00400000 </v>
   <v>       0.00400000 </v>
   <v>       0.00400000 </v>
   <v>       0.00400000 </v>
   <v>       0.00400000 </v>
   <v>       0.00400000 </v>
   <v>       0.00400000 </v>
   <v>       0.00400000 </v>
   <v>       0.00400000 </v>
   <v>       0.00400000 </v>
   <v>       0.00400000 </v>
   <v>       0.00400000 </v>
   <v>       0.00400000 </v>
   <v>       0.00400000 </v>
   <v>       0.00400000 </v>
   <v>       0.00400000 </v>
   <v>       0.00400000 </v>
   <v>       0.00400000 </v>
   <v>       0.00400000 </v>
   <v>       0.00400000 </v>
   <v>       0.00400000 </v>
   <v>       0.00400000 </v>
   <v>       0.00400000 </v>
   <v>       0.00400000 </v>
   <v>       0.00400000 </v>
   <v>       0.00400000 </v>
   <v>       0.00400000 </v>
   <v>       0.00400000 </v>
   <v>       0.00400000 </v>
   <v>       0.00400000 </v>
   <v>       0.00400000 </v>
   <v>       0.00400000 </v>
   <v>       0.00400000 </v>
   <v>       0.00400000 </v>
   <v>       0.00400000 </v>
   <v>       0.00400000 </v>
   <v>       0.00400000 </v>
   <v>       0.00400000 </v>
   <v>       0.00400000 </v>
   <v>       0.00400000 </v>
   <v>       0.00400000 </v>
   <v>       0.00400000 </v>
   <v>       0.00400000 </v>
   <v>       0.00400000 </v>
   <v>       0.00400000 </v>
   <v>       0.00400000 </v>
   <v>       0.00400000 </v>
   <v>       0.00400000 </v>
   <v>       0.00400000 </v>
   <v>       0.00400000 </v>
   <v>       0.00400000 </v>
   <v>       0.00400000 </v>
   <v>       0.00400000 </v>
   <v>       0.00400000 </v>
   <v>       0.00400000 </v>
   <v>       0.00400000 </v>
   <v>       0.00400000 </v>
   <v>       0.00400000 </v>
   <v>       0.00400000 </v>
   <v>       0.00400000 </v>
   <v>       0.00400000 </v>
   <v>       0.00400000 </v>
   <v>       0.00400000 </v>
   <v>       0.00400000 </v>
   <v>       0.00400000 </v>
   <v>       0.00400000 </v>
   <v>       0.00400000 </v>
   <v>       0.00400000 </v>
   <v>       0.00400000 </v>
   <v>       0.00400000 </v>
   <v>       0.00400000 </v>
   <v>       0.00400000 </v>
   <v>       0.00400000 </v>
   <v>       0.00400000 </v>
   <v>       0.00400000 </v>
   <v>       0.00400000 </v>
   <v>       0.00400000 </v>
   <v>       0.00400000 </v>
   <v>       0.00400000 </v>
   <v>       0.00400000 </v>
   <v>       0.00400000 </v>
   <v>       0.00400000 </v>
   <v>       0.00400000 </v>
   <v>       0.00400000 </v>
   <v>       0.00400000 </v>
   <v>       0.00400000 </v>
   <v>       0.00400000 </v>
   <v>       0.00400000 </v>
   <v>       0.00400000 </v>
   <v>       0.00400000 </v>
   <v>       0.00400000 </v>
   <v>       0.00400000 </v>
   <v>       0.00400000 </v>
   <v>       0.00400000 </v>
   <v>       0.00400000 </v>
   <v>       0.00400000 </v>
   <v>       0.00400000 </v>
   <v>       0.00400000 </v>
   <v>       0.00400000 </v>
   <v>       0.00400000 </v>
   <v>       0.00400000 </v>
   <v>       0.00400000 </v>
   <v>       0.00400000 </v>
   <v>       0.00400000 </v>
   <v>       0.00400000 </v>
   <v>       0.00400000 </v>
   <v>       0.00400000 </v>
   <v>       0.00400000 </v>
   <v>       0.00400000 </v>
   <v>       0.00400000 </v>
   <v>       0.00400000 </v>
   <v>       0.00400000 </v>
   <v>       0.00400000 </v>
   <v>       0.00400000 </v>
   <v>       0.00400000 </v>
   <v>       0.00400000 </v>
   <v>       0.00400000 </v>
   <v>       0.00400000 </v>
   <v>       0.00400000 </v>
   <v>       0.00400000 </v>
   <v>       0.00400000 </v>
   <v>       0.00400000 </v>
   <v>       0.00400000 </v>
   <v>       0.00400000 </v>
   <v>       0.00400000 </v>
   <v>       0.00400000 </v>
   <v>       0.00400000 </v>
   <v>       0.00400000 </v>
   <v>       0.00400000 </v>
   <v>       0.00400000 </v>
   <v>       0.00400000 </v>
   <v>       0.00400000 </v>
   <v>       0.00400000 </v>
   <v>       0.00400000 </v>
   <v>       0.00400000 </v>
   <v>       0.00400000 </v>
   <v>       0.00400000 </v>
   <v>       0.00400000 </v>
   <v>       0.00400000 </v>
   <v>       0.00400000 </v>
   <v>       0.00400000 </v>
   <v>       0.00400000 </v>
   <v>       0.00400000 </v>
   <v>       0.00400000 </v>
   <v>       0.00400000 </v>
   <v>       0.00400000 </v>
   <v>       0.00400000 </v>
   <v>       0.00400000 </v>
   <v>       0.00400000 </v>
   <v>       0.00400000 </v>
   <v>       0.00400000 </v>
   <v>       0.00400000 </v>
   <v>       0.00400000 </v>
   <v>       0.00400000 </v>
   <v>       0.00400000 </v>
   <v>       0.00400000 </v>
   <v>       0.00400000 </v>
   <v>       0.00400000 </v>
   <v>       0.00400000 </v>
  </varray>
 </kpoints>
 <parameters>
  <separator name="general" >
   <i type="string" name="SYSTEM">unknown system</i>
   <i type="logical" name="LCOMPAT"> F  </i>
  </separator>
  <separator name="electronic" >
   <i type="string" name="PREC">n</i>
   <i name="ENMAX">    400.00000000</i>
   <i name="ENAUG">    462.75800000</i>
   <i name="EDIFF">      0.00001000</i>
   <i type="int" name="IALGO">    68</i>
   <i type="int" name="IWAVPR">    10</i>
   <i type="int" name="NBANDS">    21</i>
   <i name="NELECT">      8.00000000</i>
   <i type="int" name="TURBO">     0</i>
   <i type="int" name="IRESTART">     0</i>
   <i type="int" name="NREBOOT">     0</i>
   <i type="int" name="NMIN">     0</i>
   <i name="EREF">      0.00000000</i>
   <separator name="electronic smearing" >
    <i type="int" name="ISMEAR">     1</i>
    <i name="SIGMA">      0.05000000</i>
    <i name="KSPACING">      0.50000000</i>
    <i type="logical" name="KGAMMA"> T  </i>
   </separator>
   <separator name="electronic projectors" >
    <i type="logical" name="LREAL"> F  </i>
    <v name="ROPT">      0.00000000      0.00000000</v>
    <i type="int" name="LMAXPAW">  -100</i>
    <i type="int" name="LMAXMIX">     4</i>
    <i type="logical" name="NLSPLINE"> F  </i>
   </separator>
   <separator name="electronic startup" >
    <i type="int" name="ISTART">     1</i>
    <i type="int" name="ICHARG">    11</i>
    <i type="int" name="INIWAV">     1</i>
   </separator>
   <separator name="electronic spin" >
    <i type="int" name="ISPIN">     1</i>
    <i type="logical" name="LNONCOLLINEAR"> T  </i>
    <v name="MAGMOM">      0.00000000      0.00000000      0.00000000      0.00000000      0.00000000      0.00000000</v>
    <i name="NUPDOWN">     -1.00000000</i>
    <i type="logical" name="LSORBIT"> T  </i>
    <v name="SAXIS">      0.00000000      0.00000000      1.00000000</v>
    <i type="logical" name="LSPIRAL"> F  </i>
    <v name="QSPIRAL">      0.00000000      0.00000000      0.00000000</v>
    <i type="logical" name="LZEROZ"> F  </i>
   </separator>
   <separator name="electronic exchange-correlation" >
    <i type="logical" name="LASPH"> F  </i>
    <i type="logical" name="LMETAGGA"> F  </i>
   </separator>
   <separator name="electronic convergence" >
    <i type="int" name="NELM">    60</i>
    <i type="int" name="NELMDL">     0</i>
    <i type="int" name="NELMIN">     2</i>
    <i name="ENINI">    400.00000000</i>
    <separator name="electronic convergence detail" >
     <i type="logical" name="LDIAG"> T  </i>
     <i type="logical" name="LSUBROT"> F  </i>
     <i name="WEIMIN">      0.00000000</i>
     <i name="EBREAK">      0.00000012</i>
     <i name="DEPER">      0.30000000</i>
     <i type="int" name="NRMM">     4</i>
     <i name="TIME">      0.40000000</i>
    </separator>
   </separator>
   <separator name="electronic mixer" >
    <i name="AMIX">      0.40000000</i>
    <i name="BMIX">      3.00000000</i>
    <i name="AMIN">      0.01000000</i>
    <i name="AMIX_MAG">      1.60000000</i>
    <i name="BMIX_MAG">      3.00000000</i>
    <separator name="electronic mixer details" >
     <i type="int" name="IMIX">     4</i>
     <i type="logical" name="MIXFIRST"> F  </i>
     <i type="int" name="MAXMIX">   -45</i>
     <i name="WC">    100.00000000</i>
     <i type="int" name="INIMIX">     1</i>
     <i type="int" name="MIXPRE">     1</i>
     <i type="int" name="MREMOVE">     5</i>
    </separator>
   </separator>
   <separator name="electronic dipolcorrection" >
    <i type="logical" name="LDIPOL"> F  </i>
    <i type="logical" name="LMONO"> F  </i>
    <i type="int" name="IDIPOL">     0</i>
    <i name="EPSILON">      1.00000000</i>
    <v name="DIPOL">   -100.00000000   -100.00000000   -100.00000000</v>
    <i name="EFIELD">      0.00000000</i>
   </separator>
  </separator>
  <separator name="grids" >
   <i type="int" name="NGX">    24</i>
   <i type="int" name="NGY">    24</i>
   <i type="int" name="NGZ">    24</i>
   <i type="int" name="NGXF">    48</i>
   <i type="int" name="NGYF">    48</i>
   <i type="int" name="NGZF">    48</i>
   <i type="logical" name="ADDGRID"> F  </i>
  </separator>
  <separator name="ionic" >
   <i type="int" name="NSW">     0</i>
   <i type="int" name="IBRION">    -1</i>
   <i type="int" name="MDALGO">     0</i>
   <i type="int" name="ISIF">     2</i>
   <i name="PSTRESS">      0.00000000</i>
   <i name="EDIFFG">      0.00010000</i>
   <i type="int" name="NFREE">     0</i>
   <i name="POTIM">      0.50000000</i>
   <i name="SMASS">     -3.00000000</i>
   <i name="SCALEE">      1.00000000</i>
  </separator>
  <separator name="ionic md" >
   <i name="TEBEG">      0.00010000</i>
   <i name="TEEND">      0.00010000</i>
   <i type="int" name="NBLOCK">     1</i>
   <i type="int" name="KBLOCK">     1</i>
   <i type="int" name="NPACO">   256</i>
   <i name="APACO">     16.00000000</i>
  </separator>
  <separator name="symmetry" >
   <i type="int" name="ISYM">     2</i>
   <i name="SYMPREC">      0.00001000</i>
  </separator>
  <separator name="dos" >
   <i type="int" name="LORBIT">     0</i>
   <v name="RWIGS">     -1.00000000     -1.00000000</v>
   <i type="int" name="NEDOS">   301</i>
   <i name="EMIN">     10.00000000</i>
   <i name="EMAX">    -10.00000000</i>
   <i name="EFERMI">      0.00000000</i>
  </separator>
  <separator name="writing" >
   <i type="int" name="NWRITE">     2</i>
   <i type="logical" name="LWAVE"> F  </i>
   <i type="logical" name="LDOWNSAMPLE"> F  </i>
   <i type="logical" name="LCHARG"> F  </i>
   <i type="logical" name="LPARD"> F  </i>
   <i type="logical" name="LVTOT"> F  </i>
   <i type="logical" name="LVHAR"> F  </i>
   <i type="logical" name="LELF"> F  </i>
   <i type="logical" name="LOPTICS"> F  </i>
   <v name="STM">      0.00000000      0.00000000      0.00000000      0.00000000      0.00000000      0.00000000      0.00000000</v>
  </separator>
  <separator name="performance" >
   <i type="int" name="NPAR">     7</i>
   <i type="int" name="NSIM">     4</i>
   <i type="int" name="NBLK">    -1</i>
   <i type="logical" name="LPLANE"> T  </i>
   <i type="logical" name="LSCALAPACK"> T  </i>
   <i type="logical" name="LSCAAWARE"> F  </i>
   <i type="logical" name="LSCALU"> F  </i>
   <i type="logical" name="LASYNC"> F  </i>
   <i type="logical" name="LORBITALREAL"> F  </i>
  </separator>
  <separator name="miscellaneous" >
   <i type="int" name="IDIOT">     3</i>
   <i type="int" name="ISPECIAL">     0</i>
   <i type="logical" name="LMUSIC"> F  </i>
   <v name="POMASS">    114.82000000     74.92200000</v>
   <v name="DARWINR">      0.00000000      0.00000000</v>
   <v name="DARWINV">      1.00000000      1.00000000</v>
   <i type="logical" name="LCORR"> T  </i>
  </separator>
  <i type="logical" name="GGA_COMPAT"> T  </i>
  <i type="logical" name="LBERRY"> F  </i>
  <i type="int" name="ICORELEVEL">     0</i>
  <i type="logical" name="LDAU"> T  </i>
  <v type="int" name="LDAUTYPE">     2</v>
  <v type="int" name="LDAUL">     1</v>
  <v name="LDAUU">     -0.08300000</v>
  <v name="LDAUJ">      0.00000000</v>
  <i type="int" name="LDAUPRINT">     0</i>
  <i type="int" name="I_CONSTRAINED_M">     0</i>
  <separator name="electronic exchange-correlation" >
   <i type="string" name="GGA">PE</i>
   <i type="int" name="VOSKOWN">     0</i>
   <i type="logical" name="LHFCALC"> F  </i>
   <i type="string" name="PRECFOCK"></i>
   <i type="logical" name="LSYMGRAD"> F  </i>
   <i type="logical" name="LHFONE"> F  </i>
   <i type="logical" name="LRHFCALC"> F  </i>
   <i type="logical" name="LTHOMAS"> F  </i>
   <i type="logical" name="LMODELHF"> F  </i>
   <i name="ENCUT4O">     -1.00000000</i>
   <i type="int" name="EXXOEP">     0</i>
   <i type="int" name="FOURORBIT">     0</i>
   <i name="AEXX">      0.00000000</i>
   <i name="HFALPHA">      0.00000000</i>
   <i name="MCALPHA">      0.00000000</i>
   <i name="ALDAX">      1.00000000</i>
   <i name="AGGAX">      1.00000000</i>
   <i name="ALDAC">      1.00000000</i>
   <i name="AGGAC">      1.00000000</i>
   <i type="int" name="NKREDX">     1</i>
   <i type="int" name="NKREDY">     1</i>
   <i type="int" name="NKREDZ">     1</i>
   <i type="logical" name="SHIFTRED"> F  </i>
   <i type="logical" name="ODDONLY"> F  </i>
   <i type="logical" name="EVENONLY"> F  </i>
   <i type="int" name="LMAXFOCK">     0</i>
   <i type="int" name="NMAXFOCKAE">     0</i>
   <i type="logical" name="LFOCKAEDFT"> F  </i>
   <i name="HFSCREEN">      0.00000000</i>
   <i name="HFSCREENC">      0.00000000</i>
   <i type="int" name="NBANDSGWLOW">     0</i>
  </separator>
  <separator name="vdW DFT" >
   <i type="logical" name="LUSE_VDW"> F  </i>
   <i name="Zab_VDW">     -0.84910000</i>
   <i name="PARAM1">      0.12340000</i>
   <i name="PARAM2">      1.00000000</i>
   <i name="PARAM3">      0.00000000</i>
  </separator>
  <separator name="model GW" >
   <i type="int" name="MODEL_GW">     0</i>
   <i name="MODEL_EPS0">     16.67765919</i>
   <i name="MODEL_ALPHA">      1.00000000</i>
  </separator>
  <separator name="linear response parameters" >
   <i type="logical" name="LEPSILON"> F  </i>
   <i type="logical" name="LRPA"> F  </i>
   <i type="logical" name="LNABLA"> F  </i>
   <i type="logical" name="LVEL"> F  </i>
   <i type="int" name="KINTER">     0</i>
   <i name="CSHIFT">      0.10000000</i>
   <i name="OMEGAMAX">     -1.00000000</i>
   <i name="DEG_THRESHOLD">      0.00200000</i>
   <i name="RTIME">     -0.10000000</i>
   <i name="WPLASMAI">      0.00000000</i>
   <v name="DFIELD">      0.00000000      0.00000000      0.00000000</v>
   <v name="WPLASMA">      0.00000000      0.00000000      0.00000000      0.00000000      0.00000000      0.00000000      0.00000000      0.00000000      0.00000000</v>
  </separator>
  <separator name="orbital magnetization" >
   <i type="logical" name="NUCIND"> F  </i>
   <v name="MAGPOS">      0.00000000      0.00000000      0.00000000</v>
   <i type="logical" name="LNICSALL"> T  </i>
   <i type="logical" name="ORBITALMAG"> F  </i>
   <i type="logical" name="LMAGBLOCH"> F  </i>
   <i type="logical" name="LCHIMAG"> F  </i>
   <i type="logical" name="LGAUGE"> T  </i>
   <i type="int" name="MAGATOM">     0</i>
   <v name="MAGDIPOL">      0.00000000      0.00000000      0.00000000</v>
   <v name="AVECCONST">      0.00000000      0.00000000      0.00000000</v>
  </separator>
  <separator name="response functions" >
   <i type="logical" name="LADDER"> F  </i>
   <i type="logical" name="LRPAFORCE"> F  </i>
   <i type="logical" name="LFXC"> F  </i>
   <i type="logical" name="LHARTREE"> T  </i>
   <i type="int" name="IBSE">     0</i>
   <v type="int" name="KPOINT">    -1     0     0     0</v>
   <i type="logical" name="LTCTE"> F  </i>
   <i type="logical" name="LTETE"> F  </i>
   <i type="logical" name="LTRIPLET"> F  </i>
   <i type="logical" name="LFXCEPS"> F  </i>
   <i type="logical" name="LFXHEG"> F  </i>
   <i type="int" name="NATURALO">     2</i>
   <i type="logical" name="L2ORDER"> F  </i>
   <i type="logical" name="LMP2LT"> F  </i>
   <i type="logical" name="LUSEW"> F  </i>
   <i name="ENCUTGW">     -2.00000000</i>
   <i name="ENCUTGWSOFT">     -2.00000000</i>
   <i name="ENCUTLF">     -1.00000000</i>
   <i type="int" name="LMAXMP2">    -1</i>
   <i name="SCISSOR">      0.00000000</i>
   <i type="int" name="NOMEGA">     0</i>
   <i type="int" name="NOMEGAR">     0</i>
   <i type="int" name="NBANDSGW">    -1</i>
   <i type="int" name="NBANDSO">    -1</i>
   <i type="int" name="NBANDSV">    -1</i>
   <i type="int" name="NELM">     1</i>
   <i type="int" name="NELMHF">     1</i>
   <i type="int" name="DIM">     3</i>
   <i type="int" name="ANTIRES">     0</i>
   <i name="OMEGAMAX">    -30.00000000</i>
   <i name="OMEGAMIN">    -30.00000000</i>
   <i name="OMEGATL">   -200.00000000</i>
   <i type="int" name="OMEGAGRID">   140</i>
   <i name="CSHIFT">     -0.10000000</i>
   <i type="logical" name="SELFENERGY"> F  </i>
   <i type="logical" name="LSPECTRAL"> F  </i>
   <i type="logical" name="LSPECTRALGW"> F  </i>
   <i type="logical" name="LSINGLES"> F  </i>
   <i type="logical" name="LFERMIGW"> F  </i>
   <i type="logical" name="ODDONLYGW"> F  </i>
   <i type="logical" name="EVENONLYGW"> F  </i>
   <i type="int" name="NKREDLFX">     1</i>
   <i type="int" name="NKREDLFY">     1</i>
   <i type="int" name="NKREDLFZ">     1</i>
   <i type="int" name="MAXMEM">  2800</i>
   <i type="int" name="TELESCOPE">     0</i>
   <i type="int" name="TAUPAR">     1</i>
   <i type="int" name="OMEGAPAR">    -1</i>
   <i name="LAMBDA">      1.00000000</i>
  </separator>
  <separator name="External order field" >
   <i name="OFIELD_KAPPA">      0.00000000</i>
   <v name="OFIELD_K">      0.00000000      0.00000000      0.00000000</v>
   <i name="OFIELD_Q6_NEAR">      0.00000000</i>
   <i name="OFIELD_Q6_FAR">      0.00000000</i>
   <i name="OFIELD_A">      0.00000000</i>
  </separator>
 </parameters>
 <atominfo>
  <atoms>       2 </atoms>
  <types>       2 </types>
  <array name="atoms" >
   <dimension dim="1">ion</dimension>
   <field type="string">element</field>
   <field type="int">atomtype</field>
   <set>
    <rc><c>In</c><c>   1</c></rc>
    <rc><c>As</c><c>   2</c></rc>
   </set>
  </array>
  <array name="atomtypes" >
   <dimension dim="1">type</dimension>
   <field type="int">atomspertype</field>
   <field type="string">element</field>
   <field>mass</field>
   <field>valence</field>
   <field type="string">pseudopotential</field>
   <set>
    <rc><c>   1</c><c>In</c><c>    114.82000000</c><c>      3.00000000</c><c>  PAW_PBE In 08Apr2002                  </c></rc>
    <rc><c>   1</c><c>As</c><c>     74.92200000</c><c>      5.00000000</c><c>  PAW_PBE As 22Sep2009                  </c></rc>
   </set>
  </array>
 </atominfo>
 <structure name="initialpos" >
  <crystal>
   <varray name="basis" >
    <v>       0.00000000       3.02920000       3.02920000 </v>
    <v>       3.02920000       0.00000000       3.02920000 </v>
    <v>       3.02920000       3.02920000       0.00000000 </v>
   </varray>
   <i name="volume">     55.59219731 </i>
   <varray name="rec_basis" >
    <v>      -0.16506008       0.16506008       0.16506008 </v>
    <v>       0.16506008      -0.16506008       0.16506008 </v>
    <v>       0.16506008       0.16506008      -0.16506008 </v>
   </varray>
  </crystal>
  <varray name="positions" >
   <v>       0.00000000       0.00000000       0.00000000 </v>
   <v>       0.75000000       0.75000000       0.75000000 </v>
  </varray>
 </structure>
 <calculation>
  <scstep>
   <time name="dav">    4.18    4.18</time>
   <time name="total">    4.34    4.36</time>
   <energy>
    <i name="alphaZ">      6.67624893 </i>
    <i name="ewald">   -213.84743004 </i>
    <i name="hartreedc">    -27.22604716 </i>
    <i name="XCdc">    -66.69192415 </i>
    <i name="pawpsdc">    571.54174895 </i>
    <i name="pawaedc">   -493.19123965 </i>
    <i name="eentropy">     -0.00010767 </i>
    <i name="bandstr">     -8.75566129 </i>
    <i name="atom">    223.97621261 </i>
    <i name="e_fr_energy">     -7.51819947 </i>
    <i name="e_wo_entrp">     -7.51809180 </i>
    <i name="e_0_energy">     -7.51816358 </i>
   </energy>
  </scstep>
  <scstep>
   <time name="diag">    0.81    0.82</time>
   <time name="diis">    2.26    2.27</time>
   <time name="orth">    0.02    0.02</time>
   <time name="total">    3.16    3.17</time>
   <energy>
    <i name="e_fr_energy">    -10.00380502 </i>
    <i name="e_wo_entrp">    -10.00393779 </i>
    <i name="e_0_energy">    -10.00384927 </i>
   </energy>
  </scstep>
  <scstep>
   <time name="diag">    0.81    0.81</time>
   <time name="diis">    2.21    2.21</time>
   <time name="orth">    0.02    0.02</time>
   <time name="total">    3.11    3.12</time>
   <energy>
    <i name="e_fr_energy">    -10.04915514 </i>
    <i name="e_wo_entrp">    -10.04944645 </i>
    <i name="e_0_energy">    -10.04925225 </i>
   </energy>
  </scstep>
  <scstep>
   <time name="diag">    0.80    0.81</time>
   <time name="diis">    2.34    2.34</time>
   <time name="orth">    0.02    0.02</time>
   <time name="total">    3.22    3.23</time>
   <energy>
    <i name="e_fr_energy">    -10.05074450 </i>
    <i name="e_wo_entrp">    -10.05103573 </i>
    <i name="e_0_energy">    -10.05084158 </i>
   </energy>
  </scstep>
  <scstep>
   <time name="diag">    0.81    0.81</time>
   <time name="diis">    2.37    2.38</time>
   <time name="orth">    0.04    0.04</time>
   <time name="total">    3.27    3.28</time>
   <energy>
    <i name="e_fr_energy">    -10.05083659 </i>
    <i name="e_wo_entrp">    -10.05112781 </i>
    <i name="e_0_energy">    -10.05093366 </i>
   </energy>
  </scstep>
  <scstep>
   <time name="diag">    0.82    0.83</time>
   <time name="diis">    2.20    2.20</time>
   <time name="orth">    0.02    0.02</time>
   <time name="total">    3.09    3.10</time>
   <energy>
    <i name="alphaZ">      6.67624893 </i>
    <i name="ewald">   -213.84743004 </i>
    <i name="hartreedc">    -27.22604716 </i>
    <i name="XCdc">    -66.69192415 </i>
    <i name="pawpsdc">    571.54174895 </i>
    <i name="pawaedc">   -493.19123965 </i>
    <i name="eentropy">      0.00029123 </i>
    <i name="bandstr">    -11.28870043 </i>
    <i name="atom">    223.97621261 </i>
    <i name="e_fr_energy">    -10.05083972 </i>
    <i name="e_wo_entrp">    -10.05113094 </i>
    <i name="e_0_energy">    -10.05093679 </i>
   </energy>
  </scstep>
  <structure>
   <crystal>
    <varray name="basis" >
     <v>       0.00000000       3.02920000       3.02920000 </v>
     <v>       3.02920000       0.00000000       3.02920000 </v>
     <v>       3.02920000       3.02920000       0.00000000 </v>
    </varray>
    <i name="volume">     55.59219731 </i>
    <varray name="rec_basis" >
     <v>      -0.16506008       0.16506008       0.16506008 </v>
     <v>       0.16506008      -0.16506008       0.16506008 </v>
     <v>       0.16506008       0.16506008      -0.16506008 </v>
    </varray>
   </crystal>
   <varray name="positions" >
    <v>       0.00000000       0.00000000       0.00000000 </v>
    <v>       0.75000000       0.75000000       0.75000000 </v>
   </varray>
  </structure>
  <varray name="forces" >
   <v>       0.00000000       0.00000000       0.00000000 </v>
   <v>      -0.00000000      -0.00000000      -0.00000000 </v>
  </varray>
  <varray name="stress" >
   <v>     116.34634553       0.00000000      -0.00000000 </v>
   <v>      -0.00000000     116.34634553       0.00000000 </v>
   <v>      -0.00000000      -0.00000000     116.34634553 </v>
  </varray>
  <energy>
   <i name="e_fr_energy">    -10.05083972 </i>
   <i name="e_wo_entrp">    -10.05093679 </i>
   <i name="e_0_energy">      0.00029123 </i>
  </energy>
  <time name="totalsc">   24.41   24.47</time>
  <eigenvalues>
   <array>
    <dimension dim="1">band</dimension>
    <dimension dim="2">kpoint</dimension>
    <dimension dim="3">spin</dimension>
    <field>eigene</field>
    <field>occ</field>
    <set>
     <set comment="spin 1">
      <set comment="kpoint 1">
       <r>   -8.3027    1.0000 </r>
       <r>   -8.3027    1.0000 </r>
       <r>    2.6414    1.0000 </r>
       <r>    2.6414    1.0000 </r>
       <r>    2.9404    0.9567 </r>
       <r>    2.9404    0.9567 </r>
       <r>    2.9404    0.9567 </r>
       <r>    2.9404    0.9567 </r>
       <r>    3.2006   -0.0000 </r>
       <r>    3.2006   -0.0000 </r>
       <r>    6.8698    0.0000 </r>
       <r>    6.8698    0.0000 </r>
       <r>    7.3308    0.0000 </r>
       <r>    7.3308    0.0000 </r>
       <r>    7.3308    0.0000 </r>
       <r>    7.3308    0.0000 </r>
       <r>   10.7881    0.0000 </r>
       <r>   10.7881    0.0000 </r>
       <r>   12.8394    0.0000 </r>
       <r>   12.8394    0.0000 </r>
       <r>   12.8394    0.0000 </r>
      </set>
      <set comment="kpoint 2">
       <r>   -8.3015    1.0000 </r>
       <r>   -8.3015    1.0000 </r>
       <r>    2.6253    1.0000 </r>
       <r>    2.6253    1.0000 </r>
       <r>    2.8934    1.0216 </r>
       <r>    2.8934    1.0216 </r>
       <r>    2.9363    0.9831 </r>
       <r>    2.9363    0.9831 </r>
       <r>    3.2600   -0.0000 </r>
       <r>    3.2600   -0.0000 </r>
       <r>    6.8719    0.0000 </r>
       <r>    6.8719    0.0000 </r>
       <r>    7.3282    0.0000 </r>
       <r>    7.3282    0.0000 </r>
       <r>    7.3358    0.0000 </r>
       <r>    7.3358    0.0000 </r>
       <r>   10.7975    0.0000 </r>
       <r>   10.7975    0.0000 </r>
       <r>   12.7948    0.0000 </r>
       <r>   12.8058    0.0000 </r>
       <r>   12.8428    0.0000 </r>
      </set>
      <set comment="kpoint 3">
       <r>   -8.2977    1.0000 </r>
       <r>   -8.2977    1.0000 </r>
       <r>    2.5715    1.0000 </r>
       <r>    2.5715    1.0000 </r>
       <r>    2.8174    1.0000 </r>
       <r>    2.8174    1.0000 </r>
       <r>    2.9239    1.0272 </r>
       <r>    2.9239    1.0272 </r>
       <r>    3.3787   -0.0000 </r>
       <r>    3.3787   -0.0000 </r>
       <r>    6.8774    0.0000 </r>
       <r>    6.8774    0.0000 </r>
       <r>    7.3215    0.0000 </r>
       <r>    7.3215    0.0000 </r>
       <r>    7.3509    0.0000 </r>
       <r>    7.3509    0.0000 </r>
       <r>   10.8255    0.0000 </r>
       <r>   10.8255    0.0000 </r>
       <r>   12.6844    0.0000 </r>
       <r>   12.7114    0.0000 </r>
       <r>   12.8522    0.0000 </r>
      </set>
      <set comment="kpoint 4">
       <r>   -8.2914    1.0000 </r>
       <r>   -8.2914    1.0000 </r>
       <r>    2.4771    1.0000 </r>
       <r>    2.4771    1.0000 </r>
       <r>    2.7588    1.0000 </r>
       <r>    2.7588    1.0000 </r>
       <r>    2.9036    1.0307 </r>
       <r>    2.9036    1.0307 </r>
       <r>    3.5135   -0.0000 </r>
       <r>    3.5135   -0.0000 </r>
       <r>    6.8838    0.0000 </r>
       <r>    6.8838    0.0000 </r>
       <r>    7.3133    0.0000 </r>
       <r>    7.3133    0.0000 </r>
       <r>    7.3759    0.0000 </r>
       <r>    7.3759    0.0000 </r>
       <r>   10.8715    0.0000 </r>
       <r>   10.8715    0.0000 </r>
       <r>   12.5357    0.0000 </r>
       <r>   12.5559    0.0000 </r>
       <r>   12.8556    0.0000 </r>
      </set>
      <set comment="kpoint 5">
       <r>   -8.2826    1.0000 </r>
       <r>   -8.2826    1.0000 </r>
       <r>    2.3559    1.0000 </r>
       <r>    2.3559    1.0000 </r>
       <r>    2.7144    1.0000 </r>
       <r>    2.7144    1.0000 </r>
       <r>    2.8756    1.0083 </r>
       <r>    2.8756    1.0083 </r>
       <r>    3.6537   -0.0000 </r>
       <r>    3.6537   -0.0000 </r>
       <r>    6.8869    0.0000 </r>
       <r>    6.8869    0.0000 </r>
       <r>    7.3086    0.0000 </r>
       <r>    7.3086    0.0000 </r>
       <r>    7.4105    0.0000 </r>
       <r>    7.4105    0.0000 </r>
       <r>   10.9343    0.0000 </r>
       <r>   10.9343    0.0000 </r>
       <r>   12.8290    0.0000 </r>
       <r>   13.5261    0.0000 </r>
       <r>   13.6018    0.0000 </r>
      </set>
      <set comment="kpoint 6">
       <r>   -8.2712    1.0000 </r>
       <r>   -8.2712    1.0000 </r>
       <r>    2.2219    1.0000 </r>
       <r>    2.2219    1.0000 </r>
       <r>    2.6739    1.0000 </r>
       <r>    2.6739    1.0000 </r>
       <r>    2.8406    1.0005 </r>
       <r>    2.8406    1.0005 </r>
       <r>    3.7961   -0.0000 </r>
       <r>    3.7961   -0.0000 </r>
       <r>    6.8811    0.0000 </r>
       <r>    6.8811    0.0000 </r>
       <r>    7.3134    0.0000 </r>
       <r>    7.3134    0.0000 </r>
       <r>    7.4543    0.0000 </r>
       <r>    7.4543    0.0000 </r>
       <r>   11.0123    0.0000 </r>
       <r>   11.0123    0.0000 </r>
       <r>   12.8659    0.0000 </r>
       <r>   12.7681    0.0000 </r>
       <r>   14.0074    0.0000 </r>
      </set>
      <set comment="kpoint 7">
       <r>   -8.2574    1.0000 </r>
       <r>   -8.2574    1.0000 </r>
       <r>    2.0819    1.0000 </r>
       <r>    2.0819    1.0000 </r>
       <r>    2.6321    1.0000 </r>
       <r>    2.6321    1.0000 </r>
       <r>    2.7990    1.0000 </r>
       <r>    2.7990    1.0000 </r>
       <r>    3.9391   -0.0000 </r>
       <r>    3.9391   -0.0000 </r>
       <r>    6.8618    0.0000 </r>
       <r>    6.8618    0.0000 </r>
       <r>    7.3334    0.0000 </r>
       <r>    7.3334    0.0000 </r>
       <r>    7.5069    0.0000 </r>
       <r>    7.5069    0.0000 </r>
       <r>   11.1034    0.0000 </r>
       <r>   11.1034    0.0000 </r>
       <r>   12.0164    0.0000 </r>
       <r>   12.0185    0.0000 </r>
       <r>   12.8820    0.0000 </r>
      </set>
      <set comment="kpoint 8">
       <r>   -8.2411    1.0000 </r>
       <r>   -8.2411    1.0000 </r>
       <r>    1.9391    1.0000 </r>
       <r>    1.9391    1.0000 </r>
       <r>    2.5872    1.0000 </r>
       <r>    2.5872    1.0000 </r>
       <r>    2.7515    1.0000 </r>
       <r>    2.7515    1.0000 </r>
       <r>    4.0818   -0.0000 </r>
       <r>    4.0818   -0.0000 </r>
       <r>    6.8272    0.0000 </r>
       <r>    6.8272    0.0000 </r>
       <r>    7.3706    0.0000 </r>
       <r>    7.3706    0.0000 </r>
       <r>    7.5679    0.0000 </r>
       <r>    7.5679    0.0000 </r>
       <r>   11.2038    0.0000 </r>
       <r>   11.2038    0.0000 </r>
       <r>   11.8428    0.0000 </r>
       <r>   11.8429    0.0000 </r>
       <r>   12.8973    0.0000 </r>
      </set>
      <set comment="kpoint 9">
       <r>   -8.2223    1.0000 </r>
       <r>   -8.2223    1.0000 </r>
       <r>    1.7947    1.0000 </r>
       <r>    1.7947    1.0000 </r>
       <r>    2.5387    1.0000 </r>
       <r>    2.5387    1.0000 </r>
       <r>    2.6988    1.0000 </r>
       <r>    2.6988    1.0000 </r>
       <r>    4.2235   -0.0000 </r>
       <r>    4.2235   -0.0000 </r>
       <r>    6.7791    0.0000 </r>
       <r>    6.7791    0.0000 </r>
       <r>    7.4241    0.0000 </r>
       <r>    7.4241    0.0000 </r>
       <r>    7.6367    0.0000 </r>
       <r>    7.6367    0.0000 </r>
       <r>   11.3021    0.0000 </r>
       <r>   11.3021    0.0000 </r>
       <r>   11.6850    0.0000 </r>
       <r>   11.6850    0.0000 </r>
       <r>   12.9159    0.0000 </r>
      </set>
      <set comment="kpoint 10">
       <r>   -8.2011    1.0000 </r>
       <r>   -8.2011    1.0000 </r>
       <r>    1.6497    1.0000 </r>
       <r>    1.6497    1.0000 </r>
       <r>    2.4866    1.0000 </r>
       <r>    2.4866    1.0000 </r>
       <r>    2.6415    1.0000 </r>
       <r>    2.6415    1.0000 </r>
       <r>    4.3638    0.0000 </r>
       <r>    4.3638    0.0000 </r>
       <r>    6.7204    0.0000 </r>
       <r>    6.7204    0.0000 </r>
       <r>    7.4914    0.0000 </r>
       <r>    7.4914    0.0000 </r>
       <r>    7.7128    0.0000 </r>
       <r>    7.7128    0.0000 </r>
       <r>   11.3410    0.0000 </r>
       <r>   11.3410    0.0000 </r>
       <r>   11.6007    0.0000 </r>
       <r>   11.6009    0.0000 </r>
       <r>   12.9464    0.0000 </r>
      </set>
      <set comment="kpoint 11">
       <r>   -8.1774    1.0000 </r>
       <r>   -8.1774    1.0000 </r>
       <r>    1.5044    1.0000 </r>
       <r>    1.5044    1.0000 </r>
       <r>    2.4311    1.0000 </r>
       <r>    2.4311    1.0000 </r>
       <r>    2.5802    1.0000 </r>
       <r>    2.5802    1.0000 </r>
       <r>    4.5019    0.0000 </r>
       <r>    4.5019    0.0000 </r>
       <r>    6.6541    0.0000 </r>
       <r>    6.6541    0.0000 </r>
       <r>    7.5698    0.0000 </r>
       <r>    7.5698    0.0000 </r>
       <r>    7.7957    0.0000 </r>
       <r>    7.7957    0.0000 </r>
       <r>   11.2411    0.0000 </r>
       <r>   11.5418    0.0000 </r>
       <r>   11.6698    0.0000 </r>
       <r>   13.8081    0.0000 </r>
       <r>   14.0787    0.0000 </r>
      </set>
      <set comment="kpoint 12">
       <r>   -8.1513    1.0000 </r>
       <r>   -8.1513    1.0000 </r>
       <r>    1.3590    1.0000 </r>
       <r>    1.3590    1.0000 </r>
       <r>    2.3727    1.0000 </r>
       <r>    2.3727    1.0000 </r>
       <r>    2.5157    1.0000 </r>
       <r>    2.5157    1.0000 </r>
       <r>    4.6374    0.0000 </r>
       <r>    4.6374    0.0000 </r>
       <r>    6.5826    0.0000 </r>
       <r>    6.5826    0.0000 </r>
       <r>    7.6576    0.0000 </r>
       <r>    7.6576    0.0000 </r>
       <r>    7.8848    0.0000 </r>
       <r>    7.8848    0.0000 </r>
       <r>   11.0928    0.0000 </r>
       <r>   11.6987    0.0000 </r>
       <r>   11.8014    0.0000 </r>
       <r>   14.0602    0.0000 </r>
       <r>   14.1309    0.0000 </r>
      </set>
      <set comment="kpoint 13">
       <r>   -8.1229    1.0000 </r>
       <r>   -8.1229    1.0000 </r>
       <r>    1.2139    1.0000 </r>
       <r>    1.2139    1.0000 </r>
       <r>    2.3118    1.0000 </r>
       <r>    2.3118    1.0000 </r>
       <r>    2.4485    1.0000 </r>
       <r>    2.4485    1.0000 </r>
       <r>    4.7696    0.0000 </r>
       <r>    4.7696    0.0000 </r>
       <r>    6.5076    0.0000 </r>
       <r>    6.5076    0.0000 </r>
       <r>    7.7530    0.0000 </r>
       <r>    7.7530    0.0000 </r>
       <r>    7.9796    0.0000 </r>
       <r>    7.9796    0.0000 </r>
       <r>   10.9401    0.0000 </r>
       <r>   11.6976    0.0000 </r>
       <r>   11.9521    0.0000 </r>
       <r>   13.0167    0.0000 </r>
       <r>   13.0495    0.0000 </r>
      </set>
      <set comment="kpoint 14">
       <r>   -8.0921    1.0000 </r>
       <r>   -8.0921    1.0000 </r>
       <r>    1.0690    1.0000 </r>
       <r>    1.0690    1.0000 </r>
       <r>    2.2487    1.0000 </r>
       <r>    2.2487    1.0000 </r>
       <r>    2.3792    1.0000 </r>
       <r>    2.3792    1.0000 </r>
       <r>    4.8977    0.0000 </r>
       <r>    4.8977    0.0000 </r>
       <r>    6.4306    0.0000 </r>
       <r>    6.4306    0.0000 </r>
       <r>    7.8549    0.0000 </r>
       <r>    7.8549    0.0000 </r>
       <r>    8.0796    0.0000 </r>
       <r>    8.0796    0.0000 </r>
       <r>   10.7916    0.0000 </r>
       <r>   10.7916    0.0000 </r>
       <r>   12.1138    0.0000 </r>
       <r>   12.1219    0.0000 </r>
       <r>   14.2071    0.0000 </r>
      </set>
      <set comment="kpoint 15">
       <r>   -8.0590    1.0000 </r>
       <r>   -8.0590    1.0000 </r>
       <r>    0.9246    1.0000 </r>
       <r>    0.9246    1.0000 </r>
       <r>    2.1839    1.0000 </r>
       <r>    2.1839    1.0000 </r>
       <r>    2.3082    1.0000 </r>
       <r>    2.3082    1.0000 </r>
       <r>    5.0210    0.0000 </r>
       <r>    5.0210    0.0000 </r>
       <r>    6.3526    0.0000 </r>
       <r>    6.3526    0.0000 </r>
       <r>    7.9625    0.0000 </r>
       <r>    7.9625    0.0000 </r>
       <r>    8.1845    0.0000 </r>
       <r>    8.1845    0.0000 </r>
       <r>   10.6504    0.0000 </r>
       <r>   10.6504    0.0000 </r>
       <r>   12.2824    0.0000 </r>
       <r>   12.2865    0.0000 </r>
       <r>   13.0631    0.0000 </r>
      </set>
      <set comment="kpoint 16">
       <r>   -8.0237    1.0000 </r>
       <r>   -8.0237    1.0000 </r>
       <r>    0.7807    1.0000 </r>
       <r>    0.7807    1.0000 </r>
       <r>    2.1179    1.0000 </r>
       <r>    2.1179    1.0000 </r>
       <r>    2.2360    1.0000 </r>
       <r>    2.2360    1.0000 </r>
       <r>    5.1385    0.0000 </r>
       <r>    5.1385    0.0000 </r>
       <r>    6.2746    0.0000 </r>
       <r>    6.2746    0.0000 </r>
       <r>    8.0750    0.0000 </r>
       <r>    8.0750    0.0000 </r>
       <r>    8.2937    0.0000 </r>
       <r>    8.2937    0.0000 </r>
       <r>   10.5184    0.0000 </r>
       <r>   10.5184    0.0000 </r>
       <r>   12.4593    0.0000 </r>
       <r>   12.4620    0.0000 </r>
       <r>   14.5289    0.0000 </r>
      </set>
      <set comment="kpoint 17">
       <r>   -7.9861    1.0000 </r>
       <r>   -7.9861    1.0000 </r>
       <r>    0.6374    1.0000 </r>
       <r>    0.6374    1.0000 </r>
       <r>    2.0510    1.0000 </r>
       <r>    2.0510    1.0000 </r>
       <r>    2.1631    1.0000 </r>
       <r>    2.1631    1.0000 </r>
       <r>    5.2491    0.0000 </r>
       <r>    5.2491    0.0000 </r>
       <r>    6.1975    0.0000 </r>
       <r>    6.1975    0.0000 </r>
       <r>    8.1917    0.0000 </r>
       <r>    8.1917    0.0000 </r>
       <r>    8.4068    0.0000 </r>
       <r>    8.4068    0.0000 </r>
       <r>   10.3968    0.0000 </r>
       <r>   10.3968    0.0000 </r>
       <r>   12.6391    0.0000 </r>
       <r>   12.6437    0.0000 </r>
       <r>   14.7123    0.0000 </r>
      </set>
      <set comment="kpoint 18">
       <r>   -7.9463    1.0000 </r>
       <r>   -7.9463    1.0000 </r>
       <r>    0.4947    1.0000 </r>
       <r>    0.4947    1.0000 </r>
       <r>    1.9835    1.0000 </r>
       <r>    1.9835    1.0000 </r>
       <r>    2.0898    1.0000 </r>
       <r>    2.0898    1.0000 </r>
       <r>    5.3514    0.0000 </r>
       <r>    5.3514    0.0000 </r>
       <r>    6.1223    0.0000 </r>
       <r>    6.1223    0.0000 </r>
       <r>    8.3122    0.0000 </r>
       <r>    8.3122    0.0000 </r>
       <r>    8.5236    0.0000 </r>
       <r>    8.5236    0.0000 </r>
       <r>   10.2871    0.0000 </r>
       <r>   10.2871    0.0000 </r>
       <r>   12.8306    0.0000 </r>
       <r>   12.8377    0.0000 </r>
       <r>   14.7701    0.0000 </r>
      </set>
      <set comment="kpoint 19">
       <r>   -7.9044    1.0000 </r>
       <r>   -7.9044    1.0000 </r>
       <r>    0.3529    1.0000 </r>
       <r>    0.3529    1.0000 </r>
       <r>    1.9157    1.0000 </r>
       <r>    1.9157    1.0000 </r>
       <r>    2.0165    1.0000 </r>
       <r>    2.0165    1.0000 </r>
       <r>    5.4437    0.0000 </r>
       <r>    5.4437    0.0000 </r>
       <r>    6.0503    0.0000 </r>
       <r>    6.0503    0.0000 </r>
       <r>    8.4359    0.0000 </r>
       <r>    8.4359    0.0000 </r>
       <r>    8.6437    0.0000 </r>
       <r>    8.6437    0.0000 </r>
       <r>   10.1903    0.0000 </r>
       <r>   10.1903    0.0000 </r>
       <r>   13.0098    0.0000 </r>
       <r>   13.2022    0.0000 </r>
       <r>   13.2064    0.0000 </r>
      </set>
      <set comment="kpoint 20">
       <r>   -7.8605    1.0000 </r>
       <r>   -7.8605    1.0000 </r>
       <r>    0.2118    1.0000 </r>
       <r>    0.2118    1.0000 </r>
       <r>    1.8481    1.0000 </r>
       <r>    1.8481    1.0000 </r>
       <r>    1.9435    1.0000 </r>
       <r>    1.9435    1.0000 </r>
       <r>    5.5231    0.0000 </r>
       <r>    5.5231    0.0000 </r>
       <r>    5.9835    0.0000 </r>
       <r>    5.9835    0.0000 </r>
       <r>    8.5625    0.0000 </r>
       <r>    8.5625    0.0000 </r>
       <r>    8.7667    0.0000 </r>
       <r>    8.7667    0.0000 </r>
       <r>   10.1076    0.0000 </r>
       <r>   10.1076    0.0000 </r>
       <r>   13.2016    0.0000 </r>
       <r>   13.2087    0.0000 </r>
       <r>   14.7715    0.0000 </r>
      </set>
      <set comment="kpoint 21">
       <r>   -7.8146    1.0000 </r>
       <r>   -7.8146    1.0000 </r>
       <r>    0.0716    1.0000 </r>
       <r>    0.0716    1.0000 </r>
       <r>    1.7808    1.0000 </r>
       <r>    1.7808    1.0000 </r>
       <r>    1.8710    1.0000 </r>
       <r>    1.8710    1.0000 </r>
       <r>    5.5850    0.0000 </r>
       <r>    5.5850    0.0000 </r>
       <r>    5.9261    0.0000 </r>
       <r>    5.9261    0.0000 </r>
       <r>    8.6917    0.0000 </r>
       <r>    8.6917    0.0000 </r>
       <r>    8.8923    0.0000 </r>
       <r>    8.8923    0.0000 </r>
       <r>   10.0400    0.0000 </r>
       <r>   10.0400    0.0000 </r>
       <r>   13.3348    0.0000 </r>
       <r>   13.3754    0.0000 </r>
       <r>   14.8258    0.0000 </r>
      </set>
      <set comment="kpoint 22">
       <r>   -7.7667    1.0000 </r>
       <r>   -7.7667    1.0000 </r>
       <r>   -0.0675    1.0000 </r>
       <r>   -0.0675    1.0000 </r>
       <r>    1.7141    1.0000 </r>
       <r>    1.7141    1.0000 </r>
       <r>    1.7994    1.0000 </r>
       <r>    1.7994    1.0000 </r>
       <r>    5.6207    0.0000 </r>
       <r>    5.6207    0.0000 </r>
       <r>    5.8862    0.0000 </r>
       <r>    5.8862    0.0000 </r>
       <r>    8.8230    0.0000 </r>
       <r>    8.8230    0.0000 </r>
       <r>    9.0204    0.0000 </r>
       <r>    9.0204    0.0000 </r>
       <r>    9.9885    0.0000 </r>
       <r>    9.9885    0.0000 </r>
       <r>   13.3372    0.0000 </r>
       <r>   13.5503    0.0000 </r>
       <r>   13.5860    0.0000 </r>
      </set>
      <set comment="kpoint 23">
       <r>   -7.7170    1.0000 </r>
       <r>   -7.7170    1.0000 </r>
       <r>   -0.2056    1.0000 </r>
       <r>   -0.2056    1.0000 </r>
       <r>    1.6483    1.0000 </r>
       <r>    1.6483    1.0000 </r>
       <r>    1.7288    1.0000 </r>
       <r>    1.7288    1.0000 </r>
       <r>    5.6208    0.0000 </r>
       <r>    5.6208    0.0000 </r>
       <r>    5.8726    0.0000 </r>
       <r>    5.8726    0.0000 </r>
       <r>    8.9563    0.0000 </r>
       <r>    8.9563    0.0000 </r>
       <r>    9.1506    0.0000 </r>
       <r>    9.1506    0.0000 </r>
       <r>    9.9538    0.0000 </r>
       <r>    9.9538    0.0000 </r>
       <r>   13.3850    0.0000 </r>
       <r>   13.4238    0.0000 </r>
       <r>   13.7801    0.0000 </r>
      </set>
      <set comment="kpoint 24">
       <r>   -7.6656    1.0000 </r>
       <r>   -7.6656    1.0000 </r>
       <r>   -0.3424    1.0000 </r>
       <r>   -0.3424    1.0000 </r>
       <r>    1.5835    1.0000 </r>
       <r>    1.5835    1.0000 </r>
       <r>    1.6595    1.0000 </r>
       <r>    1.6595    1.0000 </r>
       <r>    5.5899    0.0000 </r>
       <r>    5.5899    0.0000 </r>
       <r>    5.8805    0.0000 </r>
       <r>    5.8805    0.0000 </r>
       <r>    9.0913    0.0000 </r>
       <r>    9.0913    0.0000 </r>
       <r>    9.2826    0.0000 </r>
       <r>    9.2826    0.0000 </r>
       <r>    9.9364    0.0000 </r>
       <r>    9.9364    0.0000 </r>
       <r>   13.4541    0.0000 </r>
       <r>   13.4955    0.0000 </r>
       <r>   15.3748    0.0000 </r>
      </set>
      <set comment="kpoint 25">
       <r>   -7.6125    1.0000 </r>
       <r>   -7.6125    1.0000 </r>
       <r>   -0.4780    1.0000 </r>
       <r>   -0.4780    1.0000 </r>
       <r>    1.5200    1.0000 </r>
       <r>    1.5200    1.0000 </r>
       <r>    1.5916    1.0000 </r>
       <r>    1.5916    1.0000 </r>
       <r>    5.5430    0.0000 </r>
       <r>    5.5430    0.0000 </r>
       <r>    5.8950    0.0000 </r>
       <r>    5.8950    0.0000 </r>
       <r>    9.2277    0.0000 </r>
       <r>    9.2277    0.0000 </r>
       <r>    9.4162    0.0000 </r>
       <r>    9.4162    0.0000 </r>
       <r>    9.9365    0.0000 </r>
       <r>    9.9365    0.0000 </r>
       <r>   13.4951    0.0000 </r>
       <r>   13.5245    0.0000 </r>
       <r>   15.5729    0.0000 </r>
      </set>
      <set comment="kpoint 26">
       <r>   -7.5579    1.0000 </r>
       <r>   -7.5579    1.0000 </r>
       <r>   -0.6121    1.0000 </r>
       <r>   -0.6121    1.0000 </r>
       <r>    1.4578    1.0000 </r>
       <r>    1.4578    1.0000 </r>
       <r>    1.5253    1.0000 </r>
       <r>    1.5253    1.0000 </r>
       <r>    5.4903    0.0000 </r>
       <r>    5.4903    0.0000 </r>
       <r>    5.9062    0.0000 </r>
       <r>    5.9062    0.0000 </r>
       <r>    9.3651    0.0000 </r>
       <r>    9.3651    0.0000 </r>
       <r>    9.5511    0.0000 </r>
       <r>    9.5511    0.0000 </r>
       <r>    9.9541    0.0000 </r>
       <r>    9.9541    0.0000 </r>
       <r>   13.9125    0.0000 </r>
       <r>   14.1816    0.0000 </r>
       <r>   15.6768    0.0000 </r>
      </set>
      <set comment="kpoint 27">
       <r>   -7.5019    1.0000 </r>
       <r>   -7.5019    1.0000 </r>
       <r>   -0.7446    1.0000 </r>
       <r>   -0.7446    1.0000 </r>
       <r>    1.3973    1.0000 </r>
       <r>    1.3973    1.0000 </r>
       <r>    1.4608    1.0000 </r>
       <r>    1.4608    1.0000 </r>
       <r>    5.4362    0.0000 </r>
       <r>    5.4362    0.0000 </r>
       <r>    5.9102    0.0000 </r>
       <r>    5.9102    0.0000 </r>
       <r>    9.5034    0.0000 </r>
       <r>    9.5034    0.0000 </r>
       <r>    9.6869    0.0000 </r>
       <r>    9.6869    0.0000 </r>
       <r>    9.9889    0.0000 </r>
       <r>    9.9889    0.0000 </r>
       <r>   13.5966    0.0000 </r>
       <r>   13.6342    0.0000 </r>
       <r>   14.5351    0.0000 </r>
      </set>
      <set comment="kpoint 28">
       <r>   -7.4447    1.0000 </r>
       <r>   -7.4447    1.0000 </r>
       <r>   -0.8754    1.0000 </r>
       <r>   -0.8754    1.0000 </r>
       <r>    1.3386    1.0000 </r>
       <r>    1.3386    1.0000 </r>
       <r>    1.3982    1.0000 </r>
       <r>    1.3982    1.0000 </r>
       <r>    5.3827    0.0000 </r>
       <r>    5.3827    0.0000 </r>
       <r>    5.9060    0.0000 </r>
       <r>    5.9060    0.0000 </r>
       <r>    9.6421    0.0000 </r>
       <r>    9.6421    0.0000 </r>
       <r>    9.8228    0.0000 </r>
       <r>    9.8228    0.0000 </r>
       <r>   10.0406    0.0000 </r>
       <r>   10.0406    0.0000 </r>
       <r>   13.6543    0.0000 </r>
       <r>   13.6898    0.0000 </r>
       <r>   14.7117    0.0000 </r>
      </set>
      <set comment="kpoint 29">
       <r>   -7.3863    1.0000 </r>
       <r>   -7.3863    1.0000 </r>
       <r>   -1.0043    1.0000 </r>
       <r>   -1.0043    1.0000 </r>
       <r>    1.2816    1.0000 </r>
       <r>    1.2816    1.0000 </r>
       <r>    1.3377    1.0000 </r>
       <r>    1.3377    1.0000 </r>
       <r>    5.3309    0.0000 </r>
       <r>    5.3309    0.0000 </r>
       <r>    5.8936    0.0000 </r>
       <r>    5.8936    0.0000 </r>
       <r>    9.7809    0.0000 </r>
       <r>    9.7809    0.0000 </r>
       <r>    9.9577    0.0000 </r>
       <r>    9.9577    0.0000 </r>
       <r>   10.1093    0.0000 </r>
       <r>   10.1093    0.0000 </r>
       <r>   13.7141    0.0000 </r>
       <r>   13.7516    0.0000 </r>
       <r>   14.8921    0.0000 </r>
      </set>
      <set comment="kpoint 30">
       <r>   -7.3270    1.0000 </r>
       <r>   -7.3270    1.0000 </r>
       <r>   -1.1311    1.0000 </r>
       <r>   -1.1311    1.0000 </r>
       <r>    1.2267    1.0000 </r>
       <r>    1.2267    1.0000 </r>
       <r>    1.2793    1.0000 </r>
       <r>    1.2793    1.0000 </r>
       <r>    5.2812    0.0000 </r>
       <r>    5.2812    0.0000 </r>
       <r>    5.8737    0.0000 </r>
       <r>    5.8737    0.0000 </r>
       <r>    9.9192    0.0000 </r>
       <r>    9.9192    0.0000 </r>
       <r>   10.0895    0.0000 </r>
       <r>   10.0895    0.0000 </r>
       <r>   10.1960    0.0000 </r>
       <r>   10.1960    0.0000 </r>
       <r>   13.7752    0.0000 </r>
       <r>   13.7918    0.0000 </r>
       <r>   15.0491    0.0000 </r>
      </set>
      <set comment="kpoint 31">
       <r>   -7.2669    1.0000 </r>
       <r>   -7.2669    1.0000 </r>
       <r>   -1.2555    1.0000 </r>
       <r>   -1.2555    1.0000 </r>
       <r>    1.1740    1.0000 </r>
       <r>    1.1740    1.0000 </r>
       <r>    1.2231    1.0000 </r>
       <r>    1.2231    1.0000 </r>
       <r>    5.2339    0.0000 </r>
       <r>    5.2339    0.0000 </r>
       <r>    5.8473    0.0000 </r>
       <r>    5.8473    0.0000 </r>
       <r>   10.0563    0.0000 </r>
       <r>   10.0563    0.0000 </r>
       <r>   10.2149    0.0000 </r>
       <r>   10.2149    0.0000 </r>
       <r>   10.3024    0.0000 </r>
       <r>   10.3024    0.0000 </r>
       <r>   13.8382    0.0000 </r>
       <r>   13.8465    0.0000 </r>
       <r>   15.1993    0.0000 </r>
      </set>
      <set comment="kpoint 32">
       <r>   -7.2063    1.0000 </r>
       <r>   -7.2063    1.0000 </r>
       <r>   -1.3774    1.0000 </r>
       <r>   -1.3774    1.0000 </r>
       <r>    1.1234    1.0000 </r>
       <r>    1.1234    1.0000 </r>
       <r>    1.1693    1.0000 </r>
       <r>    1.1693    1.0000 </r>
       <r>    5.1894    0.0000 </r>
       <r>    5.1894    0.0000 </r>
       <r>    5.8155    0.0000 </r>
       <r>    5.8155    0.0000 </r>
       <r>   10.1918    0.0000 </r>
       <r>   10.1918    0.0000 </r>
       <r>   10.3355    0.0000 </r>
       <r>   10.3355    0.0000 </r>
       <r>   10.4261    0.0000 </r>
       <r>   10.4261    0.0000 </r>
       <r>   13.9026    0.0000 </r>
       <r>   13.9080    0.0000 </r>
       <r>   15.3374    0.0000 </r>
      </set>
      <set comment="kpoint 33">
       <r>   -7.1454    1.0000 </r>
       <r>   -7.1454    1.0000 </r>
       <r>   -1.4965    1.0000 </r>
       <r>   -1.4965    1.0000 </r>
       <r>    1.0751    1.0000 </r>
       <r>    1.0751    1.0000 </r>
       <r>    1.1180    1.0000 </r>
       <r>    1.1180    1.0000 </r>
       <r>    5.1476    0.0000 </r>
       <r>    5.1476    0.0000 </r>
       <r>    5.7794    0.0000 </r>
       <r>    5.7794    0.0000 </r>
       <r>   10.3252    0.0000 </r>
       <r>   10.3252    0.0000 </r>
       <r>   10.4569    0.0000 </r>
       <r>   10.4569    0.0000 </r>
       <r>   10.5594    0.0000 </r>
       <r>   10.5594    0.0000 </r>
       <r>   13.9685    0.0000 </r>
       <r>   13.9727    0.0000 </r>
       <r>   15.4603    0.0000 </r>
      </set>
      <set comment="kpoint 34">
       <r>   -7.0845    1.0000 </r>
       <r>   -7.0845    1.0000 </r>
       <r>   -1.6125    1.0000 </r>
       <r>   -1.6125    1.0000 </r>
       <r>    1.0293    1.0000 </r>
       <r>    1.0293    1.0000 </r>
       <r>    1.0691    1.0000 </r>
       <r>    1.0691    1.0000 </r>
       <r>    5.1088    0.0000 </r>
       <r>    5.1088    0.0000 </r>
       <r>    5.7401    0.0000 </r>
       <r>    5.7401    0.0000 </r>
       <r>   10.4567    0.0000 </r>
       <r>   10.4567    0.0000 </r>
       <r>   10.5828    0.0000 </r>
       <r>   10.5828    0.0000 </r>
       <r>   10.6969    0.0000 </r>
       <r>   10.6969    0.0000 </r>
       <r>   14.0355    0.0000 </r>
       <r>   14.0393    0.0000 </r>
       <r>   15.5663    0.0000 </r>
      </set>
      <set comment="kpoint 35">
       <r>   -7.0238    1.0000 </r>
       <r>   -7.0238    1.0000 </r>
       <r>   -1.7250    1.0000 </r>
       <r>   -1.7250    1.0000 </r>
       <r>    0.9859    1.0000 </r>
       <r>    0.9859    1.0000 </r>
       <r>    1.0228    1.0000 </r>
       <r>    1.0228    1.0000 </r>
       <r>    5.0729    0.0000 </r>
       <r>    5.0729    0.0000 </r>
       <r>    5.6986    0.0000 </r>
       <r>    5.6986    0.0000 </r>
       <r>   10.5869    0.0000 </r>
       <r>   10.5869    0.0000 </r>
       <r>   10.7128    0.0000 </r>
       <r>   10.7128    0.0000 </r>
       <r>   10.8358    0.0000 </r>
       <r>   10.8358    0.0000 </r>
       <r>   14.1035    0.0000 </r>
       <r>   14.1072    0.0000 </r>
       <r>   15.6559    0.0000 </r>
      </set>
      <set comment="kpoint 36">
       <r>   -6.9637    1.0000 </r>
       <r>   -6.9637    1.0000 </r>
       <r>   -1.8338    1.0000 </r>
       <r>   -1.8338    1.0000 </r>
       <r>    0.9451    1.0000 </r>
       <r>    0.9451    1.0000 </r>
       <r>    0.9792    1.0000 </r>
       <r>    0.9792    1.0000 </r>
       <r>    5.0399    0.0000 </r>
       <r>    5.0399    0.0000 </r>
       <r>    5.6558    0.0000 </r>
       <r>    5.6558    0.0000 </r>
       <r>   10.7165    0.0000 </r>
       <r>   10.7165    0.0000 </r>
       <r>   10.8455    0.0000 </r>
       <r>   10.8455    0.0000 </r>
       <r>   10.9750    0.0000 </r>
       <r>   10.9750    0.0000 </r>
       <r>   14.1723    0.0000 </r>
       <r>   14.1760    0.0000 </r>
       <r>   15.7276    0.0000 </r>
      </set>
      <set comment="kpoint 37">
       <r>   -6.9046    1.0000 </r>
       <r>   -6.9046    1.0000 </r>
       <r>   -1.9384    1.0000 </r>
       <r>   -1.9384    1.0000 </r>
       <r>    0.9069    1.0000 </r>
       <r>    0.9069    1.0000 </r>
       <r>    0.9383    1.0000 </r>
       <r>    0.9383    1.0000 </r>
       <r>    5.0098    0.0000 </r>
       <r>    5.0098    0.0000 </r>
       <r>    5.6125    0.0000 </r>
       <r>    5.6125    0.0000 </r>
       <r>   10.8457    0.0000 </r>
       <r>   10.8457    0.0000 </r>
       <r>   10.9793    0.0000 </r>
       <r>   10.9793    0.0000 </r>
       <r>   11.1135    0.0000 </r>
       <r>   11.1135    0.0000 </r>
       <r>   14.2415    0.0000 </r>
       <r>   14.2454    0.0000 </r>
       <r>   15.7776    0.0000 </r>
      </set>
      <set comment="kpoint 38">
       <r>   -6.8467    1.0000 </r>
       <r>   -6.8467    1.0000 </r>
       <r>   -2.0384    1.0000 </r>
       <r>   -2.0384    1.0000 </r>
       <r>    0.8714    1.0000 </r>
       <r>    0.8714    1.0000 </r>
       <r>    0.9002    1.0000 </r>
       <r>    0.9002    1.0000 </r>
       <r>    4.9827    0.0000 </r>
       <r>    4.9827    0.0000 </r>
       <r>    5.5695    0.0000 </r>
       <r>    5.5695    0.0000 </r>
       <r>   10.9744    0.0000 </r>
       <r>   10.9744    0.0000 </r>
       <r>   11.1127    0.0000 </r>
       <r>   11.1127    0.0000 </r>
       <r>   11.2506    0.0000 </r>
       <r>   11.2506    0.0000 </r>
       <r>   14.3109    0.0000 </r>
       <r>   14.3150    0.0000 </r>
       <r>   15.8147    0.0000 </r>
      </set>
      <set comment="kpoint 39">
       <r>   -6.7907    1.0000 </r>
       <r>   -6.7907    1.0000 </r>
       <r>   -2.1334    1.0000 </r>
       <r>   -2.1334    1.0000 </r>
       <r>    0.8386    1.0000 </r>
       <r>    0.8386    1.0000 </r>
       <r>    0.8648    1.0000 </r>
       <r>    0.8648    1.0000 </r>
       <r>    4.9585    0.0000 </r>
       <r>    4.9585    0.0000 </r>
       <r>    5.5274    0.0000 </r>
       <r>    5.5274    0.0000 </r>
       <r>   11.1020    0.0000 </r>
       <r>   11.1020    0.0000 </r>
       <r>   11.2442    0.0000 </r>
       <r>   11.2442    0.0000 </r>
       <r>   11.3855    0.0000 </r>
       <r>   11.3855    0.0000 </r>
       <r>   14.3808    0.0000 </r>
       <r>   14.3847    0.0000 </r>
       <r>   17.4181    0.0000 </r>
      </set>
      <set comment="kpoint 40">
       <r>   -6.7369    1.0000 </r>
       <r>   -6.7369    1.0000 </r>
       <r>   -2.2229    1.0000 </r>
       <r>   -2.2229    1.0000 </r>
       <r>    0.8086    1.0000 </r>
       <r>    0.8086    1.0000 </r>
       <r>    0.8324    1.0000 </r>
       <r>    0.8324    1.0000 </r>
       <r>    4.9371    0.0000 </r>
       <r>    4.9371    0.0000 </r>
       <r>    5.4868    0.0000 </r>
       <r>    5.4868    0.0000 </r>
       <r>   11.2275    0.0000 </r>
       <r>   11.2275    0.0000 </r>
       <r>   11.3728    0.0000 </r>
       <r>   11.3728    0.0000 </r>
       <r>   11.5174    0.0000 </r>
       <r>   11.5174    0.0000 </r>
       <r>   14.4499    0.0000 </r>
       <r>   14.4540    0.0000 </r>
       <r>   18.1359    0.0000 </r>
      </set>
      <set comment="kpoint 41">
       <r>   -6.6858    1.0000 </r>
       <r>   -6.6858    1.0000 </r>
       <r>   -2.3063    1.0000 </r>
       <r>   -2.3063    1.0000 </r>
       <r>    0.7814    1.0000 </r>
       <r>    0.7814    1.0000 </r>
       <r>    0.8028    1.0000 </r>
       <r>    0.8028    1.0000 </r>
       <r>    4.9184    0.0000 </r>
       <r>    4.9184    0.0000 </r>
       <r>    5.4482    0.0000 </r>
       <r>    5.4482    0.0000 </r>
       <r>   11.3500    0.0000 </r>
       <r>   11.3500    0.0000 </r>
       <r>   11.4970    0.0000 </r>
       <r>   11.4970    0.0000 </r>
       <r>   11.6452    0.0000 </r>
       <r>   11.6452    0.0000 </r>
       <r>   14.5176    0.0000 </r>
       <r>   14.5226    0.0000 </r>
       <r>   18.3992    0.0000 </r>
      </set>
      <set comment="kpoint 42">
       <r>   -6.6380    1.0000 </r>
       <r>   -6.6380    1.0000 </r>
       <r>   -2.3831    1.0000 </r>
       <r>   -2.3831    1.0000 </r>
       <r>    0.7571    1.0000 </r>
       <r>    0.7571    1.0000 </r>
       <r>    0.7761    1.0000 </r>
       <r>    0.7761    1.0000 </r>
       <r>    4.9024    0.0000 </r>
       <r>    4.9024    0.0000 </r>
       <r>    5.4122    0.0000 </r>
       <r>    5.4122    0.0000 </r>
       <r>   11.4679    0.0000 </r>
       <r>   11.4679    0.0000 </r>
       <r>   11.6154    0.0000 </r>
       <r>   11.6154    0.0000 </r>
       <r>   11.7677    0.0000 </r>
       <r>   11.7677    0.0000 </r>
       <r>   14.5838    0.0000 </r>
       <r>   14.5902    0.0000 </r>
       <r>   18.6390    0.0000 </r>
      </set>
      <set comment="kpoint 43">
       <r>   -6.5940    1.0000 </r>
       <r>   -6.5940    1.0000 </r>
       <r>   -2.4528    1.0000 </r>
       <r>   -2.4528    1.0000 </r>
       <r>    0.7357    1.0000 </r>
       <r>    0.7357    1.0000 </r>
       <r>    0.7524    1.0000 </r>
       <r>    0.7524    1.0000 </r>
       <r>    4.8888    0.0000 </r>
       <r>    4.8888    0.0000 </r>
       <r>    5.3791    0.0000 </r>
       <r>    5.3791    0.0000 </r>
       <r>   11.5799    0.0000 </r>
       <r>   11.5799    0.0000 </r>
       <r>   11.7265    0.0000 </r>
       <r>   11.7265    0.0000 </r>
       <r>   11.8835    0.0000 </r>
       <r>   11.8835    0.0000 </r>
       <r>   14.6478    0.0000 </r>
       <r>   14.6564    0.0000 </r>
       <r>   18.8818    0.0000 </r>
      </set>
      <set comment="kpoint 44">
       <r>   -6.5543    1.0000 </r>
       <r>   -6.5543    1.0000 </r>
       <r>   -2.5146    1.0000 </r>
       <r>   -2.5146    1.0000 </r>
       <r>    0.7172    1.0000 </r>
       <r>    0.7172    1.0000 </r>
       <r>    0.7317    1.0000 </r>
       <r>    0.7317    1.0000 </r>
       <r>    4.8776    0.0000 </r>
       <r>    4.8776    0.0000 </r>
       <r>    5.3494    0.0000 </r>
       <r>    5.3494    0.0000 </r>
       <r>   11.6840    0.0000 </r>
       <r>   11.6840    0.0000 </r>
       <r>   11.8285    0.0000 </r>
       <r>   11.8285    0.0000 </r>
[...]
       <r>    11.8370     0.0000     0.0000 </r>
       <r>    11.9385     0.0000     0.0000 </r>
       <r>    12.0401     0.0000     0.0000 </r>
       <r>    12.1416     0.0000     0.0000 </r>
       <r>    12.2431     0.0000     0.0000 </r>
       <r>    12.3446     0.0000     0.0000 </r>
       <r>    12.4462     0.0000     0.0000 </r>
       <r>    12.5477     0.0000     0.0000 </r>
       <r>    12.6492     0.0000     0.0000 </r>
       <r>    12.7508     0.0000     0.0000 </r>
       <r>    12.8523     0.0000     0.0000 </r>
       <r>    12.9538     0.0000     0.0000 </r>
       <r>    13.0553     0.0000     0.0000 </r>
       <r>    13.1569     0.0000     0.0000 </r>
       <r>    13.2584     0.0000     0.0000 </r>
       <r>    13.3599     0.0000     0.0000 </r>
       <r>    13.4615     0.0000     0.0000 </r>
       <r>    13.5630     0.0000     0.0000 </r>
       <r>    13.6645     0.0000     0.0000 </r>
       <r>    13.7661     0.0000     0.0000 </r>
       <r>    13.8676     0.0000     0.0000 </r>
       <r>    13.9691     0.0000     0.0000 </r>
       <r>    14.0706     0.0000     0.0000 </r>
       <r>    14.1722     0.0000     0.0000 </r>
       <r>    14.2737     0.0000     0.0000 </r>
       <r>    14.3752     0.0000     0.0000 </r>
       <r>    14.4768     0.0000     0.0000 </r>
       <r>    14.5783     0.0000     0.0000 </r>
       <r>    14.6798     0.0000     0.0000 </r>
       <r>    14.7813     0.0000     0.0000 </r>
       <r>    14.8829     0.0000     0.0000 </r>
       <r>    14.9844     0.0000     0.0000 </r>
       <r>    15.0859     0.0000     0.0000 </r>
       <r>    15.1875     0.0000     0.0000 </r>
       <r>    15.2890     0.0000     0.0000 </r>
       <r>    15.3905     0.0000     0.0000 </r>
       <r>    15.4921     0.0000     0.0000 </r>
       <r>    15.5936     0.0000     0.0000 </r>
       <r>    15.6951     0.0000     0.0000 </r>
       <r>    15.7966     0.0000     0.0000 </r>
       <r>    15.8982     0.0000     0.0000 </r>
       <r>    15.9997     0.0000     0.0000 </r>
       <r>    16.1012     0.0000     0.0000 </r>
       <r>    16.2028     0.0000     0.0000 </r>
       <r>    16.3043     0.0000     0.0000 </r>
       <r>    16.4058     0.0000     0.0000 </r>
       <r>    16.5073     0.0000     0.0000 </r>
       <r>    16.6089     0.0000     0.0000 </r>
       <r>    16.7104     0.0000     0.0000 </r>
       <r>    16.8119     0.0000     0.0000 </r>
       <r>    16.9135     0.0000     0.0000 </r>
       <r>    17.0150     0.0000     0.0000 </r>
       <r>    17.1165     0.0000     0.0000 </r>
       <r>    17.2181     0.0000     0.0000 </r>
       <r>    17.3196     0.0000     0.0000 </r>
       <r>    17.4211     0.0000     0.0000 </r>
       <r>    17.5226     0.0000     0.0000 </r>
       <r>    17.6242     0.0000     0.0000 </r>
       <r>    17.7257     0.0000     0.0000 </r>
       <r>    17.8272     0.0000     0.0000 </r>
       <r>    17.9288     0.0000     0.0000 </r>
       <r>    18.0303     0.0000     0.0000 </r>
       <r>    18.1318     0.0000     0.0000 </r>
       <r>    18.2333     0.0000     0.0000 </r>
       <r>    18.3349     0.0000     0.0000 </r>
       <r>    18.4364     0.0000     0.0000 </r>
       <r>    18.5379     0.0000     0.0000 </r>
       <r>    18.6395     0.0000     0.0000 </r>
       <r>    18.7410     0.0000     0.0000 </r>
       <r>    18.8425     0.0000     0.0000 </r>
       <r>    18.9440     0.0000     0.0000 </r>
       <r>    19.0456     0.0000     0.0000 </r>
       <r>    19.1471     0.0000     0.0000 </r>
       <r>    19.2486     0.0000     0.0000 </r>
       <r>    19.3502     0.0000     0.0000 </r>
       <r>    19.4517     0.0000     0.0000 </r>
       <r>    19.5532     0.0000     0.0000 </r>
       <r>    19.6548     0.0000     0.0000 </r>
       <r>    19.7563     0.0000     0.0000 </r>
       <r>    19.8578     0.0000     0.0000 </r>
       <r>    19.9593     0.0000     0.0000 </r>
       <r>    20.0609     0.0000     0.0000 </r>
       <r>    20.1624     0.0000     0.0000 </r>
       <r>    20.2639     0.0000     0.0000 </r>
       <r>    20.3655     0.0000     0.0000 </r>
       <r>    20.4670     0.0000     0.0000 </r>
       <r>    20.5685     0.0000     0.0000 </r>
       <r>    20.6700     0.0000     0.0000 </r>
       <r>    20.7716     0.0000     0.0000 </r>
      </set>
      <set comment="spin 4">
       <r>    -9.6872     0.0000     0.0000 </r>
       <r>    -9.5857     0.0000     0.0000 </r>
       <r>    -9.4842     0.0000     0.0000 </r>
       <r>    -9.3826     0.0000     0.0000 </r>
       <r>    -9.2811     0.0000     0.0000 </r>
       <r>    -9.1796     0.0000     0.0000 </r>
       <r>    -9.0781     0.0000     0.0000 </r>
       <r>    -8.9765     0.0000     0.0000 </r>
       <r>    -8.8750     0.0000     0.0000 </r>
       <r>    -8.7735     0.0000     0.0000 </r>
       <r>    -8.6719     0.0000     0.0000 </r>
       <r>    -8.5704     0.0000     0.0000 </r>
       <r>    -8.4689     0.0000     0.0000 </r>
       <r>    -8.3673     0.0000     0.0000 </r>
       <r>    -8.2658     0.0000     0.0000 </r>
       <r>    -8.1643     0.0000     0.0000 </r>
       <r>    -8.0628     0.0000     0.0000 </r>
       <r>    -7.9612     0.0000     0.0000 </r>
       <r>    -7.8597     0.0000     0.0000 </r>
       <r>    -7.7582     0.0000     0.0000 </r>
       <r>    -7.6566     0.0000     0.0000 </r>
       <r>    -7.5551     0.0000     0.0000 </r>
       <r>    -7.4536     0.0000     0.0000 </r>
       <r>    -7.3521     0.0000     0.0000 </r>
       <r>    -7.2505     0.0000     0.0000 </r>
       <r>    -7.1490     0.0000     0.0000 </r>
       <r>    -7.0475     0.0000     0.0000 </r>
       <r>    -6.9459     0.0000     0.0000 </r>
       <r>    -6.8444     0.0000     0.0000 </r>
       <r>    -6.7429     0.0000     0.0000 </r>
       <r>    -6.6413     0.0000     0.0000 </r>
       <r>    -6.5398     0.0000     0.0000 </r>
       <r>    -6.4383     0.0000     0.0000 </r>
       <r>    -6.3368     0.0000     0.0000 </r>
       <r>    -6.2352     0.0000     0.0000 </r>
       <r>    -6.1337     0.0000     0.0000 </r>
       <r>    -6.0322     0.0000     0.0000 </r>
       <r>    -5.9306     0.0000     0.0000 </r>
       <r>    -5.8291     0.0000     0.0000 </r>
       <r>    -5.7276     0.0000     0.0000 </r>
       <r>    -5.6261     0.0000     0.0000 </r>
       <r>    -5.5245     0.0000     0.0000 </r>
       <r>    -5.4230     0.0000     0.0000 </r>
       <r>    -5.3215     0.0000     0.0000 </r>
       <r>    -5.2199     0.0000     0.0000 </r>
       <r>    -5.1184     0.0000     0.0000 </r>
       <r>    -5.0169     0.0000     0.0000 </r>
       <r>    -4.9153     0.0000     0.0000 </r>
       <r>    -4.8138     0.0000     0.0000 </r>
       <r>    -4.7123     0.0000     0.0000 </r>
       <r>    -4.6108     0.0000     0.0000 </r>
       <r>    -4.5092     0.0000     0.0000 </r>
       <r>    -4.4077     0.0000     0.0000 </r>
       <r>    -4.3062     0.0000     0.0000 </r>
       <r>    -4.2046     0.0000     0.0000 </r>
       <r>    -4.1031     0.0000     0.0000 </r>
       <r>    -4.0016     0.0000     0.0000 </r>
       <r>    -3.9001     0.0000     0.0000 </r>
       <r>    -3.7985     0.0000     0.0000 </r>
       <r>    -3.6970     0.0000     0.0000 </r>
       <r>    -3.5955     0.0000     0.0000 </r>
       <r>    -3.4939     0.0000     0.0000 </r>
       <r>    -3.3924     0.0000     0.0000 </r>
       <r>    -3.2909     0.0000     0.0000 </r>
       <r>    -3.1893     0.0000     0.0000 </r>
       <r>    -3.0878     0.0000     0.0000 </r>
       <r>    -2.9863     0.0000     0.0000 </r>
       <r>    -2.8848     0.0000     0.0000 </r>
       <r>    -2.7832     0.0000     0.0000 </r>
       <r>    -2.6817     0.0000     0.0000 </r>
       <r>    -2.5802     0.0000     0.0000 </r>
       <r>    -2.4786     0.0000     0.0000 </r>
       <r>    -2.3771     0.0000     0.0000 </r>
       <r>    -2.2756     0.0000     0.0000 </r>
       <r>    -2.1741     0.0000     0.0000 </r>
       <r>    -2.0725     0.0000     0.0000 </r>
       <r>    -1.9710     0.0000     0.0000 </r>
       <r>    -1.8695     0.0000     0.0000 </r>
       <r>    -1.7679     0.0000     0.0000 </r>
       <r>    -1.6664     0.0000     0.0000 </r>
       <r>    -1.5649     0.0000     0.0000 </r>
       <r>    -1.4634     0.0000     0.0000 </r>
       <r>    -1.3618     0.0000     0.0000 </r>
       <r>    -1.2603     0.0000     0.0000 </r>
       <r>    -1.1588     0.0000     0.0000 </r>
       <r>    -1.0572     0.0000     0.0000 </r>
       <r>    -0.9557     0.0000     0.0000 </r>
       <r>    -0.8542     0.0000     0.0000 </r>
       <r>    -0.7526     0.0000     0.0000 </r>
       <r>    -0.6511     0.0000     0.0000 </r>
       <r>    -0.5496     0.0000     0.0000 </r>
       <r>    -0.4481     0.0000     0.0000 </r>
       <r>    -0.3465     0.0000     0.0000 </r>
       <r>    -0.2450     0.0000     0.0000 </r>
       <r>    -0.1435     0.0000     0.0000 </r>
       <r>    -0.0419     0.0000     0.0000 </r>
       <r>     0.0596     0.0000     0.0000 </r>
       <r>     0.1611     0.0000     0.0000 </r>
       <r>     0.2626     0.0000     0.0000 </r>
       <r>     0.3642     0.0000     0.0000 </r>
       <r>     0.4657     0.0000     0.0000 </r>
       <r>     0.5672     0.0000     0.0000 </r>
       <r>     0.6688     0.0000     0.0000 </r>
       <r>     0.7703     0.0000     0.0000 </r>
       <r>     0.8718     0.0000     0.0000 </r>
       <r>     0.9734     0.0000     0.0000 </r>
       <r>     1.0749     0.0000     0.0000 </r>
       <r>     1.1764     0.0000     0.0000 </r>
       <r>     1.2779     0.0000     0.0000 </r>
       <r>     1.3795     0.0000     0.0000 </r>
       <r>     1.4810     0.0000     0.0000 </r>
       <r>     1.5825     0.0000     0.0000 </r>
       <r>     1.6841     0.0000     0.0000 </r>
       <r>     1.7856     0.0000     0.0000 </r>
       <r>     1.8871     0.0000     0.0000 </r>
       <r>     1.9886     0.0000     0.0000 </r>
       <r>     2.0902     0.0000     0.0000 </r>
       <r>     2.1917     0.0000     0.0000 </r>
       <r>     2.2932     0.0000     0.0000 </r>
       <r>     2.3948     0.0000     0.0000 </r>
       <r>     2.4963     0.0000     0.0000 </r>
       <r>     2.5978     0.0000     0.0000 </r>
       <r>     2.6994     0.0000     0.0000 </r>
       <r>     2.8009     0.0000     0.0000 </r>
       <r>     2.9024     0.0000     0.0000 </r>
       <r>     3.0039     0.0000     0.0000 </r>
       <r>     3.1055     0.0000     0.0000 </r>
       <r>     3.2070     0.0000     0.0000 </r>
       <r>     3.3085     0.0000     0.0000 </r>
       <r>     3.4101     0.0000     0.0000 </r>
       <r>     3.5116     0.0000     0.0000 </r>
       <r>     3.6131     0.0000     0.0000 </r>
       <r>     3.7146     0.0000     0.0000 </r>
       <r>     3.8162     0.0000     0.0000 </r>
       <r>     3.9177     0.0000     0.0000 </r>
       <r>     4.0192     0.0000     0.0000 </r>
       <r>     4.1208     0.0000     0.0000 </r>
       <r>     4.2223     0.0000     0.0000 </r>
       <r>     4.3238     0.0000     0.0000 </r>
       <r>     4.4254     0.0000     0.0000 </r>
       <r>     4.5269     0.0000     0.0000 </r>
       <r>     4.6284     0.0000     0.0000 </r>
       <r>     4.7299     0.0000     0.0000 </r>
       <r>     4.8315     0.0000     0.0000 </r>
       <r>     4.9330     0.0000     0.0000 </r>
       <r>     5.0345     0.0000     0.0000 </r>
       <r>     5.1361     0.0000     0.0000 </r>
       <r>     5.2376     0.0000     0.0000 </r>
       <r>     5.3391     0.0000     0.0000 </r>
       <r>     5.4406     0.0000     0.0000 </r>
       <r>     5.5422     0.0000     0.0000 </r>
       <r>     5.6437     0.0000     0.0000 </r>
       <r>     5.7452     0.0000     0.0000 </r>
       <r>     5.8468     0.0000     0.0000 </r>
       <r>     5.9483     0.0000     0.0000 </r>
       <r>     6.0498     0.0000     0.0000 </r>
       <r>     6.1514     0.0000     0.0000 </r>
       <r>     6.2529     0.0000     0.0000 </r>
       <r>     6.3544     0.0000     0.0000 </r>
       <r>     6.4559     0.0000     0.0000 </r>
       <r>     6.5575     0.0000     0.0000 </r>
       <r>     6.6590     0.0000     0.0000 </r>
       <r>     6.7605     0.0000     0.0000 </r>
       <r>     6.8621     0.0000     0.0000 </r>
       <r>     6.9636     0.0000     0.0000 </r>
       <r>     7.0651     0.0000     0.0000 </r>
       <r>     7.1666     0.0000     0.0000 </r>
       <r>     7.2682     0.0000     0.0000 </r>
       <r>     7.3697     0.0000     0.0000 </r>
       <r>     7.4712     0.0000     0.0000 </r>
       <r>     7.5728     0.0000     0.0000 </r>
       <r>     7.6743     0.0000     0.0000 </r>
       <r>     7.7758     0.0000     0.0000 </r>
       <r>     7.8773     0.0000     0.0000 </r>
       <r>     7.9789     0.0000     0.0000 </r>
       <r>     8.0804     0.0000     0.0000 </r>
       <r>     8.1819     0.0000     0.0000 </r>
       <r>     8.2835     0.0000     0.0000 </r>
       <r>     8.3850     0.0000     0.0000 </r>
       <r>     8.4865     0.0000     0.0000 </r>
       <r>     8.5881     0.0000     0.0000 </r>
       <r>     8.6896     0.0000     0.0000 </r>
       <r>     8.7911     0.0000     0.0000 </r>
       <r>     8.8926     0.0000     0.0000 </r>
       <r>     8.9942     0.0000     0.0000 </r>
       <r>     9.0957     0.0000     0.0000 </r>
       <r>     9.1972     0.0000     0.0000 </r>
       <r>     9.2988     0.0000     0.0000 </r>
       <r>     9.4003     0.0000     0.0000 </r>
       <r>     9.5018     0.0000     0.0000 </r>
       <r>     9.6033     0.0000     0.0000 </r>
       <r>     9.7049     0.0000     0.0000 </r>
       <r>     9.8064     0.0000     0.0000 </r>
       <r>     9.9079     0.0000     0.0000 </r>
       <r>    10.0095     0.0000     0.0000 </r>
       <r>    10.1110     0.0000     0.0000 </r>
       <r>    10.2125     0.0000     0.0000 </r>
       <r>    10.3141     0.0000     0.0000 </r>
       <r>    10.4156     0.0000     0.0000 </r>
       <r>    10.5171     0.0000     0.0000 </r>
       <r>    10.6186     0.0000     0.0000 </r>
       <r>    10.7202     0.0000     0.0000 </r>
       <r>    10.8217     0.0000     0.0000 </r>
       <r>    10.9232     0.0000     0.0000 </r>
       <r>    11.0248     0.0000     0.0000 </r>
       <r>    11.1263     0.0000     0.0000 </r>
       <r>    11.2278     0.0000     0.0000 </r>
       <r>    11.3293     0.0000     0.0000 </r>
       <r>    11.4309     0.0000     0.0000 </r>
       <r>    11.5324     0.0000     0.0000 </r>
       <r>    11.6339     0.0000     0.0000 </r>
       <r>    11.7355     0.0000     0.0000 </r>
       <r>    11.8370     0.0000     0.0000 </r>
       <r>    11.9385     0.0000     0.0000 </r>
       <r>    12.0401     0.0000     0.0000 </r>
       <r>    12.1416     0.0000     0.0000 </r>
       <r>    12.2431     0.0000     0.0000 </r>
       <r>    12.3446     0.0000     0.0000 </r>
       <r>    12.4462     0.0000     0.0000 </r>
       <r>    12.5477     0.0000     0.0000 </r>
       <r>    12.6492     0.0000     0.0000 </r>
       <r>    12.7508     0.0000     0.0000 </r>
       <r>    12.8523     0.0000     0.0000 </r>
       <r>    12.9538     0.0000     0.0000 </r>
       <r>    13.0553     0.0000     0.0000 </r>
       <r>    13.1569     0.0000     0.0000 </r>
       <r>    13.2584     0.0000     0.0000 </r>
       <r>    13.3599     0.0000     0.0000 </r>
       <r>    13.4615     0.0000     0.0000 </r>
       <r>    13.5630     0.0000     0.0000 </r>
       <r>    13.6645     0.0000     0.0000 </r>
       <r>    13.7661     0.0000     0.0000 </r>
       <r>    13.8676     0.0000     0.0000 </r>
       <r>    13.9691     0.0000     0.0000 </r>
       <r>    14.0706     0.0000     0.0000 </r>
       <r>    14.1722     0.0000     0.0000 </r>
       <r>    14.2737     0.0000     0.0000 </r>
       <r>    14.3752     0.0000     0.0000 </r>
       <r>    14.4768     0.0000     0.0000 </r>
       <r>    14.5783     0.0000     0.0000 </r>
       <r>    14.6798     0.0000     0.0000 </r>
       <r>    14.7813     0.0000     0.0000 </r>
       <r>    14.8829     0.0000     0.0000 </r>
       <r>    14.9844     0.0000     0.0000 </r>
       <r>    15.0859     0.0000     0.0000 </r>
       <r>    15.1875     0.0000     0.0000 </r>
       <r>    15.2890     0.0000     0.0000 </r>
       <r>    15.3905     0.0000     0.0000 </r>
       <r>    15.4921     0.0000     0.0000 </r>
       <r>    15.5936     0.0000     0.0000 </r>
       <r>    15.6951     0.0000     0.0000 </r>
       <r>    15.7966     0.0000     0.0000 </r>
       <r>    15.8982     0.0000     0.0000 </r>
       <r>    15.9997     0.0000     0.0000 </r>
       <r>    16.1012     0.0000     0.0000 </r>
       <r>    16.2028     0.0000     0.0000 </r>
       <r>    16.3043     0.0000     0.0000 </r>
       <r>    16.4058     0.0000     0.0000 </r>
       <r>    16.5073     0.0000     0.0000 </r>
       <r>    16.6089     0.0000     0.0000 </r>
       <r>    16.7104     0.0000     0.0000 </r>
       <r>    16.8119     0.0000     0.0000 </r>
       <r>    16.9135     0.0000     0.0000 </r>
       <r>    17.0150     0.0000     0.0000 </r>
       <r>    17.1165     0.0000     0.0000 </r>
       <r>    17.2181     0.0000     0.0000 </r>
       <r>    17.3196     0.0000     0.0000 </r>
       <r>    17.4211     0.0000     0.0000 </r>
       <r>    17.5226     0.0000     0.0000 </r>
       <r>    17.6242     0.0000     0.0000 </r>
       <r>    17.7257     0.0000     0.0000 </r>
       <r>    17.8272     0.0000     0.0000 </r>
       <r>    17.9288     0.0000     0.0000 </r>
       <r>    18.0303     0.0000     0.0000 </r>
       <r>    18.1318     0.0000     0.0000 </r>
       <r>    18.2333     0.0000     0.0000 </r>
       <r>    18.3349     0.0000     0.0000 </r>
       <r>    18.4364     0.0000     0.0000 </r>
       <r>    18.5379     0.0000     0.0000 </r>
       <r>    18.6395     0.0000     0.0000 </r>
       <r>    18.7410     0.0000     0.0000 </r>
       <r>    18.8425     0.0000     0.0000 </r>
       <r>    18.9440     0.0000     0.0000 </r>
       <r>    19.0456     0.0000     0.0000 </r>
       <r>    19.1471     0.0000     0.0000 </r>
       <r>    19.2486     0.0000     0.0000 </r>
       <r>    19.3502     0.0000     0.0000 </r>
       <r>    19.4517     0.0000     0.0000 </r>
       <r>    19.5532     0.0000     0.0000 </r>
       <r>    19.6548     0.0000     0.0000 </r>
       <r>    19.7563     0.0000     0.0000 </r>
       <r>    19.8578     0.0000     0.0000 </r>
       <r>    19.9593     0.0000     0.0000 </r>
       <r>    20.0609     0.0000     0.0000 </r>
       <r>    20.1624     0.0000     0.0000 </r>
       <r>    20.2639     0.0000     0.0000 </r>
       <r>    20.3655     0.0000     0.0000 </r>
       <r>    20.4670     0.0000     0.0000 </r>
       <r>    20.5685     0.0000     0.0000 </r>
       <r>    20.6700     0.0000     0.0000 </r>
       <r>    20.7716     0.0000     0.0000 </r>
      </set>
     </set>
    </array>
   </total>
  </dos>
 </calculation>
 <structure name="finalpos" >
  <crystal>
   <varray name="basis" >
    <v>       0.00000000       3.02920000       3.02920000 </v>
    <v>       3.02920000       0.00000000       3.02920000 </v>
    <v>       3.02920000       3.02920000       0.00000000 </v>
   </varray>
   <i name="volume">     55.59219731 </i>
   <varray name="rec_basis" >
    <v>      -0.16506008       0.16506008       0.16506008 </v>
    <v>       0.16506008      -0.16506008       0.16506008 </v>
    <v>       0.16506008       0.16506008      -0.16506008 </v>
   </varray>
  </crystal>
  <varray name="positions" >
   <v>       0.00000000       0.00000000       0.00000000 </v>
   <v>       0.75000000       0.75000000       0.75000000 </v>
  </varray>
 </structure>
</modeling>
