<?xml version="1.0" encoding="ISO-8859-1"?>
<modeling>
 <generator>
  <i name="program" type="string">vasp </i>
  <i name="version" type="string">5.4.4.18Apr17-6-g9f103f2a35  </i>
  <i name="subversion" type="string">(build Sep 10 2021 22:26:18) complex            parallel </i>
  <i name="platform" type="string">LinuxIFC </i>
  <i name="date" type="string">2022 02 17 </i>
  <i name="time" type="string">16:05:38 </i>
 </generator>
 <incar>
  <i type="string" name="PREC">n</i>
  <i type="string" name="ALGO"> D</i>
  <i type="logical" name="LSORBIT"> T  </i>
  <v name="SAXIS">      0.00000000      0.00000000      1.00000000</v>
  <i type="int" name="ISPIN">     2</i>
  <i name="BMIX">      3.00000000</i>
  <i name="AMIN">      0.01000000</i>
  <i type="int" name="ICHARG">    11</i>
  <i name="EDIFF">      0.00001000</i>
  <i name="ENCUT">    400.00000000</i>
  <i type="int" name="NBANDS">    21</i>
  <v name="MAGMOM">      0.00000000      0.00000000      0.00000000      0.00000000      0.00000000      0.00000000</v>
  <i name="SIGMA">      0.05000000</i>
  <i type="int" name="LMAXMIX">     4</i>
  <i type="logical" name="LWAVE"> F  </i>
  <i type="logical" name="LCHARG"> F  </i>
  <v type="int" name="KPOINT_BSE">    -1     0     0     0</v>
  <i type="string" name="GGA"> PE</i>
  <i type="logical" name="LDAU"> T  </i>
  <v type="int" name="LDAUL">     1     1</v>
  <v name="LDAUU">     -0.34900000     -5.68000000</v>
  <v name="LDAUJ">      0.00000000      0.00000000</v>
 </incar>
 <structure name="primitive_cell" >
  <crystal>
   <varray name="basis" >
    <v>       0.00000000       3.02920000       3.02920000 </v>
    <v>       3.02920000       0.00000000       3.02920000 </v>
    <v>       3.02920000       3.02920000       0.00000000 </v>
   </varray>
   <i name="volume">     55.59219731 </i>
   <varray name="rec_basis" >
    <v>      -0.16506008       0.16506008       0.16506008 </v>
    <v>       0.16506008      -0.16506008       0.16506008 </v>
    <v>       0.16506008       0.16506008      -0.16506008 </v>
   </varray>
  </crystal>
  <varray name="positions" >
   <v>       0.00000000       0.00000000       0.00000000 </v>
   <v>      -0.25000000      -0.25000000      -0.25000000 </v>
  </varray>
 </structure>
 <varray name="primitive_index" >
  <v type="int" >        1 </v>
  <v type="int" >        2 </v>
 </varray>
 <kpoints>
  <generation param="listgenerated">
   <i name="divisions" type="int">      50 </i>
   <v>       0.00000000       0.00000000       0.00000000 </v>
   <v>       0.50000000       0.00000000       0.50000000 </v>
   <v>       0.50000000       0.25000000       0.75000000 </v>
   <v>       0.50000000       0.50000000       0.50000000 </v>
   <v>       0.00000000       0.00000000       0.00000000 </v>
   <v>       0.37500000       0.37500000       0.75000000 </v>
  </generation>
  <varray name="kpointlist" >
   <v>       0.00000000       0.00000000       0.00000000 </v>
   <v>       0.01020408       0.00000000       0.01020408 </v>
   <v>       0.02040816       0.00000000       0.02040816 </v>
   <v>       0.03061224       0.00000000       0.03061224 </v>
   <v>       0.04081633       0.00000000       0.04081633 </v>
   <v>       0.05102041       0.00000000       0.05102041 </v>
   <v>       0.06122449       0.00000000       0.06122449 </v>
   <v>       0.07142857       0.00000000       0.07142857 </v>
   <v>       0.08163265       0.00000000       0.08163265 </v>
   <v>       0.09183673       0.00000000       0.09183673 </v>
   <v>       0.10204082       0.00000000       0.10204082 </v>
   <v>       0.11224490       0.00000000       0.11224490 </v>
   <v>       0.12244898       0.00000000       0.12244898 </v>
   <v>       0.13265306       0.00000000       0.13265306 </v>
   <v>       0.14285714       0.00000000       0.14285714 </v>
   <v>       0.15306122       0.00000000       0.15306122 </v>
   <v>       0.16326531       0.00000000       0.16326531 </v>
   <v>       0.17346939       0.00000000       0.17346939 </v>
   <v>       0.18367347       0.00000000       0.18367347 </v>
   <v>       0.19387755       0.00000000       0.19387755 </v>
   <v>       0.20408163       0.00000000       0.20408163 </v>
   <v>       0.21428571       0.00000000       0.21428571 </v>
   <v>       0.22448980       0.00000000       0.22448980 </v>
   <v>       0.23469388       0.00000000       0.23469388 </v>
   <v>       0.24489796       0.00000000       0.24489796 </v>
   <v>       0.25510204       0.00000000       0.25510204 </v>
   <v>       0.26530612       0.00000000       0.26530612 </v>
   <v>       0.27551020       0.00000000       0.27551020 </v>
   <v>       0.28571429       0.00000000       0.28571429 </v>
   <v>       0.29591837       0.00000000       0.29591837 </v>
   <v>       0.30612245       0.00000000       0.30612245 </v>
   <v>       0.31632653       0.00000000       0.31632653 </v>
   <v>       0.32653061       0.00000000       0.32653061 </v>
   <v>       0.33673469       0.00000000       0.33673469 </v>
   <v>       0.34693878       0.00000000       0.34693878 </v>
   <v>       0.35714286       0.00000000       0.35714286 </v>
   <v>       0.36734694       0.00000000       0.36734694 </v>
   <v>       0.37755102       0.00000000       0.37755102 </v>
   <v>       0.38775510       0.00000000       0.38775510 </v>
   <v>       0.39795918       0.00000000       0.39795918 </v>
   <v>       0.40816327       0.00000000       0.40816327 </v>
   <v>       0.41836735       0.00000000       0.41836735 </v>
   <v>       0.42857143       0.00000000       0.42857143 </v>
   <v>       0.43877551       0.00000000       0.43877551 </v>
   <v>       0.44897959       0.00000000       0.44897959 </v>
   <v>       0.45918367       0.00000000       0.45918367 </v>
   <v>       0.46938776       0.00000000       0.46938776 </v>
   <v>       0.47959184       0.00000000       0.47959184 </v>
   <v>       0.48979592       0.00000000       0.48979592 </v>
   <v>       0.50000000       0.00000000       0.50000000 </v>
   <v>       0.50000000       0.00000000       0.50000000 </v>
   <v>       0.50000000       0.00510204       0.50510204 </v>
   <v>       0.50000000       0.01020408       0.51020408 </v>
   <v>       0.50000000       0.01530612       0.51530612 </v>
   <v>       0.50000000       0.02040816       0.52040816 </v>
   <v>       0.50000000       0.02551020       0.52551020 </v>
   <v>       0.50000000       0.03061224       0.53061224 </v>
   <v>       0.50000000       0.03571429       0.53571429 </v>
   <v>       0.50000000       0.04081633       0.54081633 </v>
   <v>       0.50000000       0.04591837       0.54591837 </v>
   <v>       0.50000000       0.05102041       0.55102041 </v>
   <v>       0.50000000       0.05612245       0.55612245 </v>
   <v>       0.50000000       0.06122449       0.56122449 </v>
   <v>       0.50000000       0.06632653       0.56632653 </v>
   <v>       0.50000000       0.07142857       0.57142857 </v>
   <v>       0.50000000       0.07653061       0.57653061 </v>
   <v>       0.50000000       0.08163265       0.58163265 </v>
   <v>       0.50000000       0.08673469       0.58673469 </v>
   <v>       0.50000000       0.09183673       0.59183673 </v>
   <v>       0.50000000       0.09693878       0.59693878 </v>
   <v>       0.50000000       0.10204082       0.60204082 </v>
   <v>       0.50000000       0.10714286       0.60714286 </v>
   <v>       0.50000000       0.11224490       0.61224490 </v>
   <v>       0.50000000       0.11734694       0.61734694 </v>
   <v>       0.50000000       0.12244898       0.62244898 </v>
   <v>       0.50000000       0.12755102       0.62755102 </v>
   <v>       0.50000000       0.13265306       0.63265306 </v>
   <v>       0.50000000       0.13775510       0.63775510 </v>
   <v>       0.50000000       0.14285714       0.64285714 </v>
   <v>       0.50000000       0.14795918       0.64795918 </v>
   <v>       0.50000000       0.15306122       0.65306122 </v>
   <v>       0.50000000       0.15816327       0.65816327 </v>
   <v>       0.50000000       0.16326531       0.66326531 </v>
   <v>       0.50000000       0.16836735       0.66836735 </v>
   <v>       0.50000000       0.17346939       0.67346939 </v>
   <v>       0.50000000       0.17857143       0.67857143 </v>
   <v>       0.50000000       0.18367347       0.68367347 </v>
   <v>       0.50000000       0.18877551       0.68877551 </v>
   <v>       0.50000000       0.19387755       0.69387755 </v>
   <v>       0.50000000       0.19897959       0.69897959 </v>
   <v>       0.50000000       0.20408163       0.70408163 </v>
   <v>       0.50000000       0.20918367       0.70918367 </v>
   <v>       0.50000000       0.21428571       0.71428571 </v>
   <v>       0.50000000       0.21938776       0.71938776 </v>
   <v>       0.50000000       0.22448980       0.72448980 </v>
   <v>       0.50000000       0.22959184       0.72959184 </v>
   <v>       0.50000000       0.23469388       0.73469388 </v>
   <v>       0.50000000       0.23979592       0.73979592 </v>
   <v>       0.50000000       0.24489796       0.74489796 </v>
   <v>       0.50000000       0.25000000       0.75000000 </v>
   <v>       0.50000000       0.25000000       0.75000000 </v>
   <v>       0.50000000       0.25510204       0.74489796 </v>
   <v>       0.50000000       0.26020408       0.73979592 </v>
   <v>       0.50000000       0.26530612       0.73469388 </v>
   <v>       0.50000000       0.27040816       0.72959184 </v>
   <v>       0.50000000       0.27551020       0.72448980 </v>
   <v>       0.50000000       0.28061224       0.71938776 </v>
   <v>       0.50000000       0.28571429       0.71428571 </v>
   <v>       0.50000000       0.29081633       0.70918367 </v>
   <v>       0.50000000       0.29591837       0.70408163 </v>
   <v>       0.50000000       0.30102041       0.69897959 </v>
   <v>       0.50000000       0.30612245       0.69387755 </v>
   <v>       0.50000000       0.31122449       0.68877551 </v>
   <v>       0.50000000       0.31632653       0.68367347 </v>
   <v>       0.50000000       0.32142857       0.67857143 </v>
   <v>       0.50000000       0.32653061       0.67346939 </v>
   <v>       0.50000000       0.33163265       0.66836735 </v>
   <v>       0.50000000       0.33673469       0.66326531 </v>
   <v>       0.50000000       0.34183673       0.65816327 </v>
   <v>       0.50000000       0.34693878       0.65306122 </v>
   <v>       0.50000000       0.35204082       0.64795918 </v>
   <v>       0.50000000       0.35714286       0.64285714 </v>
   <v>       0.50000000       0.36224490       0.63775510 </v>
   <v>       0.50000000       0.36734694       0.63265306 </v>
   <v>       0.50000000       0.37244898       0.62755102 </v>
   <v>       0.50000000       0.37755102       0.62244898 </v>
   <v>       0.50000000       0.38265306       0.61734694 </v>
   <v>       0.50000000       0.38775510       0.61224490 </v>
   <v>       0.50000000       0.39285714       0.60714286 </v>
   <v>       0.50000000       0.39795918       0.60204082 </v>
   <v>       0.50000000       0.40306122       0.59693878 </v>
   <v>       0.50000000       0.40816327       0.59183673 </v>
   <v>       0.50000000       0.41326531       0.58673469 </v>
   <v>       0.50000000       0.41836735       0.58163265 </v>
   <v>       0.50000000       0.42346939       0.57653061 </v>
   <v>       0.50000000       0.42857143       0.57142857 </v>
   <v>       0.50000000       0.43367347       0.56632653 </v>
   <v>       0.50000000       0.43877551       0.56122449 </v>
   <v>       0.50000000       0.44387755       0.55612245 </v>
   <v>       0.50000000       0.44897959       0.55102041 </v>
   <v>       0.50000000       0.45408163       0.54591837 </v>
   <v>       0.50000000       0.45918367       0.54081633 </v>
   <v>       0.50000000       0.46428571       0.53571429 </v>
   <v>       0.50000000       0.46938776       0.53061224 </v>
   <v>       0.50000000       0.47448980       0.52551020 </v>
   <v>       0.50000000       0.47959184       0.52040816 </v>
   <v>       0.50000000       0.48469388       0.51530612 </v>
   <v>       0.50000000       0.48979592       0.51020408 </v>
   <v>       0.50000000       0.49489796       0.50510204 </v>
   <v>       0.50000000       0.50000000       0.50000000 </v>
   <v>       0.50000000       0.50000000       0.50000000 </v>
   <v>       0.48979592       0.48979592       0.48979592 </v>
   <v>       0.47959184       0.47959184       0.47959184 </v>
   <v>       0.46938776       0.46938776       0.46938776 </v>
   <v>       0.45918367       0.45918367       0.45918367 </v>
   <v>       0.44897959       0.44897959       0.44897959 </v>
   <v>       0.43877551       0.43877551       0.43877551 </v>
   <v>       0.42857143       0.42857143       0.42857143 </v>
   <v>       0.41836735       0.41836735       0.41836735 </v>
   <v>       0.40816327       0.40816327       0.40816327 </v>
   <v>       0.39795918       0.39795918       0.39795918 </v>
   <v>       0.38775510       0.38775510       0.38775510 </v>
   <v>       0.37755102       0.37755102       0.37755102 </v>
   <v>       0.36734694       0.36734694       0.36734694 </v>
   <v>       0.35714286       0.35714286       0.35714286 </v>
   <v>       0.34693878       0.34693878       0.34693878 </v>
   <v>       0.33673469       0.33673469       0.33673469 </v>
   <v>       0.32653061       0.32653061       0.32653061 </v>
   <v>       0.31632653       0.31632653       0.31632653 </v>
   <v>       0.30612245       0.30612245       0.30612245 </v>
   <v>       0.29591837       0.29591837       0.29591837 </v>
   <v>       0.28571429       0.28571429       0.28571429 </v>
   <v>       0.27551020       0.27551020       0.27551020 </v>
   <v>       0.26530612       0.26530612       0.26530612 </v>
   <v>       0.25510204       0.25510204       0.25510204 </v>
   <v>       0.24489796       0.24489796       0.24489796 </v>
   <v>       0.23469388       0.23469388       0.23469388 </v>
   <v>       0.22448980       0.22448980       0.22448980 </v>
   <v>       0.21428571       0.21428571       0.21428571 </v>
   <v>       0.20408163       0.20408163       0.20408163 </v>
   <v>       0.19387755       0.19387755       0.19387755 </v>
   <v>       0.18367347       0.18367347       0.18367347 </v>
   <v>       0.17346939       0.17346939       0.17346939 </v>
   <v>       0.16326531       0.16326531       0.16326531 </v>
   <v>       0.15306122       0.15306122       0.15306122 </v>
   <v>       0.14285714       0.14285714       0.14285714 </v>
   <v>       0.13265306       0.13265306       0.13265306 </v>
   <v>       0.12244898       0.12244898       0.12244898 </v>
   <v>       0.11224490       0.11224490       0.11224490 </v>
   <v>       0.10204082       0.10204082       0.10204082 </v>
   <v>       0.09183673       0.09183673       0.09183673 </v>
   <v>       0.08163265       0.08163265       0.08163265 </v>
   <v>       0.07142857       0.07142857       0.07142857 </v>
   <v>       0.06122449       0.06122449       0.06122449 </v>
   <v>       0.05102041       0.05102041       0.05102041 </v>
   <v>       0.04081633       0.04081633       0.04081633 </v>
   <v>       0.03061224       0.03061224       0.03061224 </v>
   <v>       0.02040816       0.02040816       0.02040816 </v>
   <v>       0.01020408       0.01020408       0.01020408 </v>
   <v>       0.00000000       0.00000000       0.00000000 </v>
   <v>       0.00000000       0.00000000       0.00000000 </v>
   <v>       0.00765306       0.00765306       0.01530612 </v>
   <v>       0.01530612       0.01530612       0.03061224 </v>
   <v>       0.02295918       0.02295918       0.04591837 </v>
   <v>       0.03061224       0.03061224       0.06122449 </v>
   <v>       0.03826531       0.03826531       0.07653061 </v>
   <v>       0.04591837       0.04591837       0.09183673 </v>
   <v>       0.05357143       0.05357143       0.10714286 </v>
   <v>       0.06122449       0.06122449       0.12244898 </v>
   <v>       0.06887755       0.06887755       0.13775510 </v>
   <v>       0.07653061       0.07653061       0.15306122 </v>
   <v>       0.08418367       0.08418367       0.16836735 </v>
   <v>       0.09183673       0.09183673       0.18367347 </v>
   <v>       0.09948980       0.09948980       0.19897959 </v>
   <v>       0.10714286       0.10714286       0.21428571 </v>
   <v>       0.11479592       0.11479592       0.22959184 </v>
   <v>       0.12244898       0.12244898       0.24489796 </v>
   <v>       0.13010204       0.13010204       0.26020408 </v>
   <v>       0.13775510       0.13775510       0.27551020 </v>
   <v>       0.14540816       0.14540816       0.29081633 </v>
   <v>       0.15306122       0.15306122       0.30612245 </v>
   <v>       0.16071429       0.16071429       0.32142857 </v>
   <v>       0.16836735       0.16836735       0.33673469 </v>
   <v>       0.17602041       0.17602041       0.35204082 </v>
   <v>       0.18367347       0.18367347       0.36734694 </v>
   <v>       0.19132653       0.19132653       0.38265306 </v>
   <v>       0.19897959       0.19897959       0.39795918 </v>
   <v>       0.20663265       0.20663265       0.41326531 </v>
   <v>       0.21428571       0.21428571       0.42857143 </v>
   <v>       0.22193878       0.22193878       0.44387755 </v>
   <v>       0.22959184       0.22959184       0.45918367 </v>
   <v>       0.23724490       0.23724490       0.47448980 </v>
   <v>       0.24489796       0.24489796       0.48979592 </v>
   <v>       0.25255102       0.25255102       0.50510204 </v>
   <v>       0.26020408       0.26020408       0.52040816 </v>
   <v>       0.26785714       0.26785714       0.53571429 </v>
   <v>       0.27551020       0.27551020       0.55102041 </v>
   <v>       0.28316327       0.28316327       0.56632653 </v>
   <v>       0.29081633       0.29081633       0.58163265 </v>
   <v>       0.29846939       0.29846939       0.59693878 </v>
   <v>       0.30612245       0.30612245       0.61224490 </v>
   <v>       0.31377551       0.31377551       0.62755102 </v>
   <v>       0.32142857       0.32142857       0.64285714 </v>
   <v>       0.32908163       0.32908163       0.65816327 </v>
   <v>       0.33673469       0.33673469       0.67346939 </v>
   <v>       0.34438776       0.34438776       0.68877551 </v>
   <v>       0.35204082       0.35204082       0.70408163 </v>
   <v>       0.35969388       0.35969388       0.71938776 </v>
   <v>       0.36734694       0.36734694       0.73469388 </v>
   <v>       0.37500000       0.37500000       0.75000000 </v>
  </varray>
  <varray name="weights" >
   <v>       0.00400000 </v>
   <v>       0.00400000 </v>
   <v>       0.00400000 </v>
   <v>       0.00400000 </v>
   <v>       0.00400000 </v>
   <v>       0.00400000 </v>
   <v>       0.00400000 </v>
   <v>       0.00400000 </v>
   <v>       0.00400000 </v>
   <v>       0.00400000 </v>
   <v>       0.00400000 </v>
   <v>       0.00400000 </v>
   <v>       0.00400000 </v>
   <v>       0.00400000 </v>
   <v>       0.00400000 </v>
   <v>       0.00400000 </v>
   <v>       0.00400000 </v>
   <v>       0.00400000 </v>
   <v>       0.00400000 </v>
   <v>       0.00400000 </v>
   <v>       0.00400000 </v>
   <v>       0.00400000 </v>
   <v>       0.00400000 </v>
   <v>       0.00400000 </v>
   <v>       0.00400000 </v>
   <v>       0.00400000 </v>
   <v>       0.00400000 </v>
   <v>       0.00400000 </v>
   <v>       0.00400000 </v>
   <v>       0.00400000 </v>
   <v>       0.00400000 </v>
   <v>       0.00400000 </v>
   <v>       0.00400000 </v>
   <v>       0.00400000 </v>
   <v>       0.00400000 </v>
   <v>       0.00400000 </v>
   <v>       0.00400000 </v>
   <v>       0.00400000 </v>
   <v>       0.00400000 </v>
   <v>       0.00400000 </v>
   <v>       0.00400000 </v>
   <v>       0.00400000 </v>
   <v>       0.00400000 </v>
   <v>       0.00400000 </v>
   <v>       0.00400000 </v>
   <v>       0.00400000 </v>
   <v>       0.00400000 </v>
   <v>       0.00400000 </v>
   <v>       0.00400000 </v>
   <v>       0.00400000 </v>
   <v>       0.00400000 </v>
   <v>       0.00400000 </v>
   <v>       0.00400000 </v>
   <v>       0.00400000 </v>
   <v>       0.00400000 </v>
   <v>       0.00400000 </v>
   <v>       0.00400000 </v>
   <v>       0.00400000 </v>
   <v>       0.00400000 </v>
   <v>       0.00400000 </v>
   <v>       0.00400000 </v>
   <v>       0.00400000 </v>
   <v>       0.00400000 </v>
   <v>       0.00400000 </v>
   <v>       0.00400000 </v>
   <v>       0.00400000 </v>
   <v>       0.00400000 </v>
   <v>       0.00400000 </v>
   <v>       0.00400000 </v>
   <v>       0.00400000 </v>
   <v>       0.00400000 </v>
   <v>       0.00400000 </v>
   <v>       0.00400000 </v>
   <v>       0.00400000 </v>
   <v>       0.00400000 </v>
   <v>       0.00400000 </v>
   <v>       0.00400000 </v>
   <v>       0.00400000 </v>
   <v>       0.00400000 </v>
   <v>       0.00400000 </v>
   <v>       0.00400000 </v>
   <v>       0.00400000 </v>
   <v>       0.00400000 </v>
   <v>       0.00400000 </v>
   <v>       0.00400000 </v>
   <v>       0.00400000 </v>
   <v>       0.00400000 </v>
   <v>       0.00400000 </v>
   <v>       0.00400000 </v>
   <v>       0.00400000 </v>
   <v>       0.00400000 </v>
   <v>       0.00400000 </v>
   <v>       0.00400000 </v>
   <v>       0.00400000 </v>
   <v>       0.00400000 </v>
   <v>       0.00400000 </v>
   <v>       0.00400000 </v>
   <v>       0.00400000 </v>
   <v>       0.00400000 </v>
   <v>       0.00400000 </v>
   <v>       0.00400000 </v>
   <v>       0.00400000 </v>
   <v>       0.00400000 </v>
   <v>       0.00400000 </v>
   <v>       0.00400000 </v>
   <v>       0.00400000 </v>
   <v>       0.00400000 </v>
   <v>       0.00400000 </v>
   <v>       0.00400000 </v>
   <v>       0.00400000 </v>
   <v>       0.00400000 </v>
   <v>       0.00400000 </v>
   <v>       0.00400000 </v>
   <v>       0.00400000 </v>
   <v>       0.00400000 </v>
   <v>       0.00400000 </v>
   <v>       0.00400000 </v>
   <v>       0.00400000 </v>
   <v>       0.00400000 </v>
   <v>       0.00400000 </v>
   <v>       0.00400000 </v>
   <v>       0.00400000 </v>
   <v>       0.00400000 </v>
   <v>       0.00400000 </v>
   <v>       0.00400000 </v>
   <v>       0.00400000 </v>
   <v>       0.00400000 </v>
   <v>       0.00400000 </v>
   <v>       0.00400000 </v>
   <v>       0.00400000 </v>
   <v>       0.00400000 </v>
   <v>       0.00400000 </v>
   <v>       0.00400000 </v>
   <v>       0.00400000 </v>
   <v>       0.00400000 </v>
   <v>       0.00400000 </v>
   <v>       0.00400000 </v>
   <v>       0.00400000 </v>
   <v>       0.00400000 </v>
   <v>       0.00400000 </v>
   <v>       0.00400000 </v>
   <v>       0.00400000 </v>
   <v>       0.00400000 </v>
   <v>       0.00400000 </v>
   <v>       0.00400000 </v>
   <v>       0.00400000 </v>
   <v>       0.00400000 </v>
   <v>       0.00400000 </v>
   <v>       0.00400000 </v>
   <v>       0.00400000 </v>
   <v>       0.00400000 </v>
   <v>       0.00400000 </v>
   <v>       0.00400000 </v>
   <v>       0.00400000 </v>
   <v>       0.00400000 </v>
   <v>       0.00400000 </v>
   <v>       0.00400000 </v>
   <v>       0.00400000 </v>
   <v>       0.00400000 </v>
   <v>       0.00400000 </v>
   <v>       0.00400000 </v>
   <v>       0.00400000 </v>
   <v>       0.00400000 </v>
   <v>       0.00400000 </v>
   <v>       0.00400000 </v>
   <v>       0.00400000 </v>
   <v>       0.00400000 </v>
   <v>       0.00400000 </v>
   <v>       0.00400000 </v>
   <v>       0.00400000 </v>
   <v>       0.00400000 </v>
   <v>       0.00400000 </v>
   <v>       0.00400000 </v>
   <v>       0.00400000 </v>
   <v>       0.00400000 </v>
   <v>       0.00400000 </v>
   <v>       0.00400000 </v>
   <v>       0.00400000 </v>
   <v>       0.00400000 </v>
   <v>       0.00400000 </v>
   <v>       0.00400000 </v>
   <v>       0.00400000 </v>
   <v>       0.00400000 </v>
   <v>       0.00400000 </v>
   <v>       0.00400000 </v>
   <v>       0.00400000 </v>
   <v>       0.00400000 </v>
   <v>       0.00400000 </v>
   <v>       0.00400000 </v>
   <v>       0.00400000 </v>
   <v>       0.00400000 </v>
   <v>       0.00400000 </v>
   <v>       0.00400000 </v>
   <v>       0.00400000 </v>
   <v>       0.00400000 </v>
   <v>       0.00400000 </v>
   <v>       0.00400000 </v>
   <v>       0.00400000 </v>
   <v>       0.00400000 </v>
   <v>       0.00400000 </v>
   <v>       0.00400000 </v>
   <v>       0.00400000 </v>
   <v>       0.00400000 </v>
   <v>       0.00400000 </v>
   <v>       0.00400000 </v>
   <v>       0.00400000 </v>
   <v>       0.00400000 </v>
   <v>       0.00400000 </v>
   <v>       0.00400000 </v>
   <v>       0.00400000 </v>
   <v>       0.00400000 </v>
   <v>       0.00400000 </v>
   <v>       0.00400000 </v>
   <v>       0.00400000 </v>
   <v>       0.00400000 </v>
   <v>       0.00400000 </v>
   <v>       0.00400000 </v>
   <v>       0.00400000 </v>
   <v>       0.00400000 </v>
   <v>       0.00400000 </v>
   <v>       0.00400000 </v>
   <v>       0.00400000 </v>
   <v>       0.00400000 </v>
   <v>       0.00400000 </v>
   <v>       0.00400000 </v>
   <v>       0.00400000 </v>
   <v>       0.00400000 </v>
   <v>       0.00400000 </v>
   <v>       0.00400000 </v>
   <v>       0.00400000 </v>
   <v>       0.00400000 </v>
   <v>       0.00400000 </v>
   <v>       0.00400000 </v>
   <v>       0.00400000 </v>
   <v>       0.00400000 </v>
   <v>       0.00400000 </v>
   <v>       0.00400000 </v>
   <v>       0.00400000 </v>
   <v>       0.00400000 </v>
   <v>       0.00400000 </v>
   <v>       0.00400000 </v>
   <v>       0.00400000 </v>
   <v>       0.00400000 </v>
   <v>       0.00400000 </v>
   <v>       0.00400000 </v>
   <v>       0.00400000 </v>
   <v>       0.00400000 </v>
   <v>       0.00400000 </v>
   <v>       0.00400000 </v>
   <v>       0.00400000 </v>
  </varray>
 </kpoints>
 <parameters>
  <separator name="general" >
   <i type="string" name="SYSTEM">unknown system</i>
   <i type="logical" name="LCOMPAT"> F  </i>
  </separator>
  <separator name="electronic" >
   <i type="string" name="PREC">n</i>
   <i name="ENMAX">    400.00000000</i>
   <i name="ENAUG">    462.75800000</i>
   <i name="EDIFF">      0.00001000</i>
   <i type="int" name="IALGO">    53</i>
   <i type="int" name="IWAVPR">    10</i>
   <i type="int" name="NBANDS">    21</i>
   <i name="NELECT">      8.00000000</i>
   <i type="int" name="TURBO">     0</i>
   <i type="int" name="IRESTART">     0</i>
   <i type="int" name="NREBOOT">     0</i>
   <i type="int" name="NMIN">     0</i>
   <i name="EREF">      0.00000000</i>
   <separator name="electronic smearing" >
    <i type="int" name="ISMEAR">     1</i>
    <i name="SIGMA">      0.05000000</i>
    <i name="KSPACING">      0.50000000</i>
    <i type="logical" name="KGAMMA"> T  </i>
   </separator>
   <separator name="electronic projectors" >
    <i type="logical" name="LREAL"> F  </i>
    <v name="ROPT">      0.00000000      0.00000000</v>
    <i type="int" name="LMAXPAW">  -100</i>
    <i type="int" name="LMAXMIX">     4</i>
    <i type="logical" name="NLSPLINE"> F  </i>
   </separator>
   <separator name="electronic startup" >
    <i type="int" name="ISTART">     1</i>
    <i type="int" name="ICHARG">    11</i>
    <i type="int" name="INIWAV">     1</i>
   </separator>
   <separator name="electronic spin" >
    <i type="int" name="ISPIN">     1</i>
    <i type="logical" name="LNONCOLLINEAR"> T  </i>
    <v name="MAGMOM">      0.00000000      0.00000000      0.00000000      0.00000000      0.00000000      0.00000000</v>
    <i name="NUPDOWN">     -1.00000000</i>
    <i type="logical" name="LSORBIT"> T  </i>
    <v name="SAXIS">      0.00000000      0.00000000      1.00000000</v>
    <i type="logical" name="LSPIRAL"> F  </i>
    <v name="QSPIRAL">      0.00000000      0.00000000      0.00000000</v>
    <i type="logical" name="LZEROZ"> F  </i>
   </separator>
   <separator name="electronic exchange-correlation" >
    <i type="logical" name="LASPH"> F  </i>
    <i type="logical" name="LMETAGGA"> F  </i>
   </separator>
   <separator name="electronic convergence" >
    <i type="int" name="NELM">    60</i>
    <i type="int" name="NELMDL">     0</i>
    <i type="int" name="NELMIN">     2</i>
    <i name="ENINI">    400.00000000</i>
    <separator name="electronic convergence detail" >
     <i type="logical" name="LDIAG"> T  </i>
     <i type="logical" name="LSUBROT"> F  </i>
     <i name="WEIMIN">      0.00000000</i>
     <i name="EBREAK">      0.00000012</i>
     <i name="DEPER">      0.30000000</i>
     <i type="int" name="NRMM">     4</i>
     <i name="TIME">      0.40000000</i>
    </separator>
   </separator>
   <separator name="electronic mixer" >
    <i name="AMIX">      0.40000000</i>
    <i name="BMIX">      3.00000000</i>
    <i name="AMIN">      0.01000000</i>
    <i name="AMIX_MAG">      1.60000000</i>
    <i name="BMIX_MAG">      3.00000000</i>
    <separator name="electronic mixer details" >
     <i type="int" name="IMIX">     4</i>
     <i type="logical" name="MIXFIRST"> F  </i>
     <i type="int" name="MAXMIX">   -45</i>
     <i name="WC">    100.00000000</i>
     <i type="int" name="INIMIX">     1</i>
     <i type="int" name="MIXPRE">     1</i>
     <i type="int" name="MREMOVE">     5</i>
    </separator>
   </separator>
   <separator name="electronic dipolcorrection" >
    <i type="logical" name="LDIPOL"> F  </i>
    <i type="logical" name="LMONO"> F  </i>
    <i type="int" name="IDIPOL">     0</i>
    <i name="EPSILON">      1.00000000</i>
    <v name="DIPOL">   -100.00000000   -100.00000000   -100.00000000</v>
    <i name="EFIELD">      0.00000000</i>
   </separator>
  </separator>
  <separator name="grids" >
   <i type="int" name="NGX">    24</i>
   <i type="int" name="NGY">    24</i>
   <i type="int" name="NGZ">    24</i>
   <i type="int" name="NGXF">    48</i>
   <i type="int" name="NGYF">    48</i>
   <i type="int" name="NGZF">    48</i>
   <i type="logical" name="ADDGRID"> F  </i>
  </separator>
  <separator name="ionic" >
   <i type="int" name="NSW">     0</i>
   <i type="int" name="IBRION">    -1</i>
   <i type="int" name="MDALGO">     0</i>
   <i type="int" name="ISIF">     2</i>
   <i name="PSTRESS">      0.00000000</i>
   <i name="EDIFFG">      0.00010000</i>
   <i type="int" name="NFREE">     0</i>
   <i name="POTIM">      0.50000000</i>
   <i name="SMASS">     -3.00000000</i>
   <i name="SCALEE">      1.00000000</i>
  </separator>
  <separator name="ionic md" >
   <i name="TEBEG">      0.00010000</i>
   <i name="TEEND">      0.00010000</i>
   <i type="int" name="NBLOCK">     1</i>
   <i type="int" name="KBLOCK">     1</i>
   <i type="int" name="NPACO">   256</i>
   <i name="APACO">     16.00000000</i>
  </separator>
  <separator name="symmetry" >
   <i type="int" name="ISYM">     2</i>
   <i name="SYMPREC">      0.00001000</i>
  </separator>
  <separator name="dos" >
   <i type="int" name="LORBIT">     0</i>
   <v name="RWIGS">     -1.00000000     -1.00000000</v>
   <i type="int" name="NEDOS">   301</i>
   <i name="EMIN">     10.00000000</i>
   <i name="EMAX">    -10.00000000</i>
   <i name="EFERMI">      0.00000000</i>
  </separator>
  <separator name="writing" >
   <i type="int" name="NWRITE">     2</i>
   <i type="logical" name="LWAVE"> F  </i>
   <i type="logical" name="LDOWNSAMPLE"> F  </i>
   <i type="logical" name="LCHARG"> F  </i>
   <i type="logical" name="LPARD"> F  </i>
   <i type="logical" name="LVTOT"> F  </i>
   <i type="logical" name="LVHAR"> F  </i>
   <i type="logical" name="LELF"> F  </i>
   <i type="logical" name="LOPTICS"> F  </i>
   <v name="STM">      0.00000000      0.00000000      0.00000000      0.00000000      0.00000000      0.00000000      0.00000000</v>
  </separator>
  <separator name="performance" >
   <i type="int" name="NPAR">     3</i>
   <i type="int" name="NSIM">     4</i>
   <i type="int" name="NBLK">    -1</i>
   <i type="logical" name="LPLANE"> T  </i>
   <i type="logical" name="LSCALAPACK"> T  </i>
   <i type="logical" name="LSCAAWARE"> F  </i>
   <i type="logical" name="LSCALU"> F  </i>
   <i type="logical" name="LASYNC"> F  </i>
   <i type="logical" name="LORBITALREAL"> F  </i>
  </separator>
  <separator name="miscellaneous" >
   <i type="int" name="IDIOT">     3</i>
   <i type="int" name="ISPECIAL">     0</i>
   <i type="logical" name="LMUSIC"> F  </i>
   <v name="POMASS">    114.82000000     74.92200000</v>
   <v name="DARWINR">      0.00000000      0.00000000</v>
   <v name="DARWINV">      1.00000000      1.00000000</v>
   <i type="logical" name="LCORR"> T  </i>
  </separator>
  <i type="logical" name="GGA_COMPAT"> T  </i>
  <i type="logical" name="LBERRY"> F  </i>
  <i type="int" name="ICORELEVEL">     0</i>
  <i type="logical" name="LDAU"> T  </i>
  <v type="int" name="LDAUTYPE">     2</v>
  <v type="int" name="LDAUL">     1</v>
  <v name="LDAUU">     -0.34900000</v>
  <v name="LDAUJ">      0.00000000</v>
  <i type="int" name="LDAUPRINT">     0</i>
  <i type="int" name="I_CONSTRAINED_M">     0</i>
  <separator name="electronic exchange-correlation" >
   <i type="string" name="GGA">PE</i>
   <i type="int" name="VOSKOWN">     0</i>
   <i type="logical" name="LHFCALC"> F  </i>
   <i type="string" name="PRECFOCK"></i>
   <i type="logical" name="LSYMGRAD"> F  </i>
   <i type="logical" name="LHFONE"> F  </i>
   <i type="logical" name="LRHFCALC"> F  </i>
   <i type="logical" name="LTHOMAS"> F  </i>
   <i type="logical" name="LMODELHF"> F  </i>
   <i name="ENCUT4O">     -1.00000000</i>
   <i type="int" name="EXXOEP">     0</i>
   <i type="int" name="FOURORBIT">     0</i>
   <i name="AEXX">      0.00000000</i>
   <i name="HFALPHA">      0.00000000</i>
   <i name="MCALPHA">      0.00000000</i>
   <i name="ALDAX">      1.00000000</i>
   <i name="AGGAX">      1.00000000</i>
   <i name="ALDAC">      1.00000000</i>
   <i name="AGGAC">      1.00000000</i>
   <i type="int" name="NKREDX">     1</i>
   <i type="int" name="NKREDY">     1</i>
   <i type="int" name="NKREDZ">     1</i>
   <i type="logical" name="SHIFTRED"> F  </i>
   <i type="logical" name="ODDONLY"> F  </i>
   <i type="logical" name="EVENONLY"> F  </i>
   <i type="int" name="LMAXFOCK">     0</i>
   <i type="int" name="NMAXFOCKAE">     0</i>
   <i type="logical" name="LFOCKAEDFT"> F  </i>
   <i name="HFSCREEN">      0.00000000</i>
   <i name="HFSCREENC">      0.00000000</i>
   <i type="int" name="NBANDSGWLOW">     0</i>
  </separator>
  <separator name="vdW DFT" >
   <i type="logical" name="LUSE_VDW"> F  </i>
   <i name="Zab_VDW">     -0.84910000</i>
   <i name="PARAM1">      0.12340000</i>
   <i name="PARAM2">      1.00000000</i>
   <i name="PARAM3">      0.00000000</i>
  </separator>
  <separator name="model GW" >
   <i type="int" name="MODEL_GW">     0</i>
   <i name="MODEL_EPS0">     16.67765919</i>
   <i name="MODEL_ALPHA">      1.00000000</i>
  </separator>
  <separator name="linear response parameters" >
   <i type="logical" name="LEPSILON"> F  </i>
   <i type="logical" name="LRPA"> F  </i>
   <i type="logical" name="LNABLA"> F  </i>
   <i type="logical" name="LVEL"> F  </i>
   <i type="int" name="KINTER">     0</i>
   <i name="CSHIFT">      0.10000000</i>
   <i name="OMEGAMAX">     -1.00000000</i>
   <i name="DEG_THRESHOLD">      0.00200000</i>
   <i name="RTIME">     -0.10000000</i>
   <i name="WPLASMAI">      0.00000000</i>
   <v name="DFIELD">      0.00000000      0.00000000      0.00000000</v>
   <v name="WPLASMA">      0.00000000      0.00000000      0.00000000      0.00000000      0.00000000      0.00000000      0.00000000      0.00000000      0.00000000</v>
  </separator>
  <separator name="orbital magnetization" >
   <i type="logical" name="NUCIND"> F  </i>
   <v name="MAGPOS">      0.00000000      0.00000000      0.00000000</v>
   <i type="logical" name="LNICSALL"> T  </i>
   <i type="logical" name="ORBITALMAG"> F  </i>
   <i type="logical" name="LMAGBLOCH"> F  </i>
   <i type="logical" name="LCHIMAG"> F  </i>
   <i type="logical" name="LGAUGE"> T  </i>
   <i type="int" name="MAGATOM">     0</i>
   <v name="MAGDIPOL">      0.00000000      0.00000000      0.00000000</v>
   <v name="AVECCONST">      0.00000000      0.00000000      0.00000000</v>
  </separator>
  <separator name="response functions" >
   <i type="logical" name="LADDER"> F  </i>
   <i type="logical" name="LRPAFORCE"> F  </i>
   <i type="logical" name="LFXC"> F  </i>
   <i type="logical" name="LHARTREE"> T  </i>
   <i type="int" name="IBSE">     0</i>
   <v type="int" name="KPOINT">    -1     0     0     0</v>
   <i type="logical" name="LTCTE"> F  </i>
   <i type="logical" name="LTETE"> F  </i>
   <i type="logical" name="LTRIPLET"> F  </i>
   <i type="logical" name="LFXCEPS"> F  </i>
   <i type="logical" name="LFXHEG"> F  </i>
   <i type="int" name="NATURALO">     2</i>
   <i type="logical" name="L2ORDER"> F  </i>
   <i type="logical" name="LMP2LT"> F  </i>
   <i type="logical" name="LUSEW"> F  </i>
   <i name="ENCUTGW">     -2.00000000</i>
   <i name="ENCUTGWSOFT">     -2.00000000</i>
   <i name="ENCUTLF">     -1.00000000</i>
   <i type="int" name="LMAXMP2">    -1</i>
   <i name="SCISSOR">      0.00000000</i>
   <i type="int" name="NOMEGA">     0</i>
   <i type="int" name="NOMEGAR">     0</i>
   <i type="int" name="NBANDSGW">    -1</i>
   <i type="int" name="NBANDSO">    -1</i>
   <i type="int" name="NBANDSV">    -1</i>
   <i type="int" name="NELM">     1</i>
   <i type="int" name="NELMHF">     1</i>
   <i type="int" name="DIM">     3</i>
   <i type="int" name="ANTIRES">     0</i>
   <i name="OMEGAMAX">    -30.00000000</i>
   <i name="OMEGAMIN">    -30.00000000</i>
   <i name="OMEGATL">   -200.00000000</i>
   <i type="int" name="OMEGAGRID">   140</i>
   <i name="CSHIFT">     -0.10000000</i>
   <i type="logical" name="SELFENERGY"> F  </i>
   <i type="logical" name="LSPECTRAL"> F  </i>
   <i type="logical" name="LSPECTRALGW"> F  </i>
   <i type="logical" name="LSINGLES"> F  </i>
   <i type="logical" name="LFERMIGW"> F  </i>
   <i type="logical" name="ODDONLYGW"> F  </i>
   <i type="logical" name="EVENONLYGW"> F  </i>
   <i type="int" name="NKREDLFX">     1</i>
   <i type="int" name="NKREDLFY">     1</i>
   <i type="int" name="NKREDLFZ">     1</i>
   <i type="int" name="MAXMEM">  2800</i>
   <i type="int" name="TELESCOPE">     0</i>
   <i type="int" name="TAUPAR">     1</i>
   <i type="int" name="OMEGAPAR">    -1</i>
   <i name="LAMBDA">      1.00000000</i>
  </separator>
  <separator name="External order field" >
   <i name="OFIELD_KAPPA">      0.00000000</i>
   <v name="OFIELD_K">      0.00000000      0.00000000      0.00000000</v>
   <i name="OFIELD_Q6_NEAR">      0.00000000</i>
   <i name="OFIELD_Q6_FAR">      0.00000000</i>
   <i name="OFIELD_A">      0.00000000</i>
  </separator>
 </parameters>
 <atominfo>
  <atoms>       2 </atoms>
  <types>       2 </types>
  <array name="atoms" >
   <dimension dim="1">ion</dimension>
   <field type="string">element</field>
   <field type="int">atomtype</field>
   <set>
    <rc><c>In</c><c>   1</c></rc>
    <rc><c>As</c><c>   2</c></rc>
   </set>
  </array>
  <array name="atomtypes" >
   <dimension dim="1">type</dimension>
   <field type="int">atomspertype</field>
   <field type="string">element</field>
   <field>mass</field>
   <field>valence</field>
   <field type="string">pseudopotential</field>
   <set>
    <rc><c>   1</c><c>In</c><c>    114.82000000</c><c>      3.00000000</c><c>  PAW_PBE In 08Apr2002                  </c></rc>
    <rc><c>   1</c><c>As</c><c>     74.92200000</c><c>      5.00000000</c><c>  PAW_PBE As 22Sep2009                  </c></rc>
   </set>
  </array>
 </atominfo>
 <structure name="initialpos" >
  <crystal>
   <varray name="basis" >
    <v>       0.00000000       3.02920000       3.02920000 </v>
    <v>       3.02920000       0.00000000       3.02920000 </v>
    <v>       3.02920000       3.02920000       0.00000000 </v>
   </varray>
   <i name="volume">     55.59219731 </i>
   <varray name="rec_basis" >
    <v>      -0.16506008       0.16506008       0.16506008 </v>
    <v>       0.16506008      -0.16506008       0.16506008 </v>
    <v>       0.16506008       0.16506008      -0.16506008 </v>
   </varray>
  </crystal>
  <varray name="positions" >
   <v>       0.00000000       0.00000000       0.00000000 </v>
   <v>       0.75000000       0.75000000       0.75000000 </v>
  </varray>
 </structure>
 <calculation>
  <scstep>
   <time name="total">    0.72    0.73</time>
   <energy>
    <i name="alphaZ">      6.67624893 </i>
    <i name="ewald">   -213.84743004 </i>
    <i name="hartreedc">    -26.91276175 </i>
    <i name="XCdc">    -66.72452323 </i>
    <i name="pawpsdc">    572.27048798 </i>
    <i name="pawaedc">   -493.54102643 </i>
    <i name="eentropy">      0.00007473 </i>
    <i name="bandstr">     48.19835663 </i>
    <i name="atom">    223.97621261 </i>
    <i name="e_fr_energy">     50.09557729 </i>
    <i name="e_wo_entrp">     50.09550256 </i>
    <i name="e_0_energy">     50.09555238 </i>
   </energy>
  </scstep>
  <scstep>
   <time name="total">    0.59    0.60</time>
   <energy>
    <i name="e_fr_energy">     37.55621285 </i>
    <i name="e_wo_entrp">     37.55626294 </i>
    <i name="e_0_energy">     37.55622955 </i>
   </energy>
  </scstep>
  <scstep>
   <time name="total">    0.59    0.59</time>
   <energy>
    <i name="e_fr_energy">     18.34366735 </i>
    <i name="e_wo_entrp">     18.34379970 </i>
    <i name="e_0_energy">     18.34371147 </i>
   </energy>
  </scstep>
  <scstep>
   <time name="total">    0.59    0.59</time>
   <energy>
    <i name="e_fr_energy">      2.61216867 </i>
    <i name="e_wo_entrp">      2.61221004 </i>
    <i name="e_0_energy">      2.61218246 </i>
   </energy>
  </scstep>
  <scstep>
   <time name="total">    0.59    0.59</time>
   <energy>
    <i name="e_fr_energy">     -3.28750320 </i>
    <i name="e_wo_entrp">     -3.28747983 </i>
    <i name="e_0_energy">     -3.28749541 </i>
   </energy>
  </scstep>
  <scstep>
   <time name="total">    0.59    0.59</time>
   <energy>
    <i name="e_fr_energy">     -6.03200469 </i>
    <i name="e_wo_entrp">     -6.03189947 </i>
    <i name="e_0_energy">     -6.03196962 </i>
   </energy>
  </scstep>
  <scstep>
   <time name="total">    0.59    0.59</time>
   <energy>
    <i name="e_fr_energy">     -7.65587344 </i>
    <i name="e_wo_entrp">     -7.65594550 </i>
    <i name="e_0_energy">     -7.65589746 </i>
   </energy>
  </scstep>
  <scstep>
   <time name="total">    0.59    0.59</time>
   <energy>
    <i name="e_fr_energy">     -8.63472586 </i>
    <i name="e_wo_entrp">     -8.63476585 </i>
    <i name="e_0_energy">     -8.63473919 </i>
   </energy>
  </scstep>
  <scstep>
   <time name="total">    0.60    0.60</time>
   <energy>
    <i name="e_fr_energy">     -9.01007191 </i>
    <i name="e_wo_entrp">     -9.01007214 </i>
    <i name="e_0_energy">     -9.01007199 </i>
   </energy>
  </scstep>
  <scstep>
   <time name="total">    0.59    0.59</time>
   <energy>
    <i name="e_fr_energy">     -9.18292007 </i>
    <i name="e_wo_entrp">     -9.18309012 </i>
    <i name="e_0_energy">     -9.18297675 </i>
   </energy>
  </scstep>
  <scstep>
   <time name="total">    0.59    0.59</time>
   <energy>
    <i name="e_fr_energy">     -9.26650741 </i>
    <i name="e_wo_entrp">     -9.26677091 </i>
    <i name="e_0_energy">     -9.26659524 </i>
   </energy>
  </scstep>
  <scstep>
   <time name="total">    0.59    0.60</time>
   <energy>
    <i name="e_fr_energy">     -9.30492721 </i>
    <i name="e_wo_entrp">     -9.30519893 </i>
    <i name="e_0_energy">     -9.30501778 </i>
   </energy>
  </scstep>
  <scstep>
   <time name="total">    0.59    0.59</time>
   <energy>
    <i name="e_fr_energy">     -9.32143795 </i>
    <i name="e_wo_entrp">     -9.32172255 </i>
    <i name="e_0_energy">     -9.32153282 </i>
   </energy>
  </scstep>
  <scstep>
   <time name="total">    0.59    0.59</time>
   <energy>
    <i name="e_fr_energy">     -9.32809223 </i>
    <i name="e_wo_entrp">     -9.32837918 </i>
    <i name="e_0_energy">     -9.32818788 </i>
   </energy>
  </scstep>
  <scstep>
   <time name="total">    0.59    0.59</time>
   <energy>
    <i name="e_fr_energy">     -9.33061904 </i>
    <i name="e_wo_entrp">     -9.33090177 </i>
    <i name="e_0_energy">     -9.33071328 </i>
   </energy>
  </scstep>
  <scstep>
   <time name="total">    0.59    0.59</time>
   <energy>
    <i name="e_fr_energy">     -9.33152256 </i>
    <i name="e_wo_entrp">     -9.33180185 </i>
    <i name="e_0_energy">     -9.33161565 </i>
   </energy>
  </scstep>
  <scstep>
   <time name="total">    0.59    0.59</time>
   <energy>
    <i name="e_fr_energy">     -9.33182250 </i>
    <i name="e_wo_entrp">     -9.33210002 </i>
    <i name="e_0_energy">     -9.33191501 </i>
   </energy>
  </scstep>
  <scstep>
   <time name="total">    0.59    0.59</time>
   <energy>
    <i name="e_fr_energy">     -9.33191475 </i>
    <i name="e_wo_entrp">     -9.33219146 </i>
    <i name="e_0_energy">     -9.33200699 </i>
   </energy>
  </scstep>
  <scstep>
   <time name="total">    0.59    0.59</time>
   <energy>
    <i name="e_fr_energy">     -9.33194131 </i>
    <i name="e_wo_entrp">     -9.33221766 </i>
    <i name="e_0_energy">     -9.33203343 </i>
   </energy>
  </scstep>
  <scstep>
   <time name="total">    0.81    0.81</time>
   <energy>
    <i name="alphaZ">      6.67624893 </i>
    <i name="ewald">   -213.84743004 </i>
    <i name="hartreedc">    -26.91276175 </i>
    <i name="XCdc">    -66.72452323 </i>
    <i name="pawpsdc">    572.27048798 </i>
    <i name="pawaedc">   -493.54102643 </i>
    <i name="eentropy">      0.00027617 </i>
    <i name="bandstr">    -11.22943281 </i>
    <i name="atom">    223.97621261 </i>
    <i name="e_fr_energy">     -9.33194840 </i>
    <i name="e_wo_entrp">     -9.33222457 </i>
    <i name="e_0_energy">     -9.33204045 </i>
   </energy>
  </scstep>
  <structure>
   <crystal>
    <varray name="basis" >
     <v>       0.00000000       3.02920000       3.02920000 </v>
     <v>       3.02920000       0.00000000       3.02920000 </v>
     <v>       3.02920000       3.02920000       0.00000000 </v>
    </varray>
    <i name="volume">     55.59219731 </i>
    <varray name="rec_basis" >
     <v>      -0.16506008       0.16506008       0.16506008 </v>
     <v>       0.16506008      -0.16506008       0.16506008 </v>
     <v>       0.16506008       0.16506008      -0.16506008 </v>
    </varray>
   </crystal>
   <varray name="positions" >
    <v>       0.00000000       0.00000000       0.00000000 </v>
    <v>       0.75000000       0.75000000       0.75000000 </v>
   </varray>
  </structure>
  <varray name="forces" >
   <v>       0.00000000       0.00000000       0.00000000 </v>
   <v>      -0.00000000      -0.00000000      -0.00000000 </v>
  </varray>
  <varray name="stress" >
   <v>     118.25123941       0.00000000      -0.00000000 </v>
   <v>      -0.00000000     118.25123941       0.00000000 </v>
   <v>       0.00000000      -0.00000000     118.25123941 </v>
  </varray>
  <energy>
   <i name="e_fr_energy">     -9.33194840 </i>
   <i name="e_wo_entrp">     -9.33204045 </i>
   <i name="e_0_energy">      0.00027617 </i>
  </energy>
  <time name="totalsc">   13.28   13.31</time>
  <eigenvalues>
   <array>
    <dimension dim="1">band</dimension>
    <dimension dim="2">kpoint</dimension>
    <dimension dim="3">spin</dimension>
    <field>eigene</field>
    <field>occ</field>
    <set>
     <set comment="spin 1">
      <set comment="kpoint 1">
       <r>   -8.3475    1.0000 </r>
       <r>   -8.3475    1.0000 </r>
       <r>    2.6926    1.0000 </r>
       <r>    2.6926    1.0000 </r>
       <r>    3.0012    0.9619 </r>
       <r>    3.0012    0.9619 </r>
       <r>    3.0012    0.9619 </r>
       <r>    3.0012    0.9619 </r>
       <r>    3.1819   -0.0002 </r>
       <r>    3.1819   -0.0002 </r>
       <r>    6.8363    0.0000 </r>
       <r>    6.8363    0.0000 </r>
       <r>    7.2914    0.0000 </r>
       <r>    7.2914    0.0000 </r>
       <r>    7.2914    0.0000 </r>
       <r>    7.2914    0.0000 </r>
       <r>   10.7932    0.0000 </r>
       <r>   10.7932    0.0000 </r>
       <r>   12.8290    0.0000 </r>
       <r>   12.8290    0.0000 </r>
       <r>   12.8294    0.0000 </r>
      </set>
      <set comment="kpoint 2">
       <r>   -8.3462    1.0000 </r>
       <r>   -8.3462    1.0000 </r>
       <r>    2.6744    1.0000 </r>
       <r>    2.6744    1.0000 </r>
       <r>    2.9422    1.0114 </r>
       <r>    2.9422    1.0114 </r>
       <r>    2.9969    0.9879 </r>
       <r>    2.9969    0.9878 </r>
       <r>    3.2554   -0.0000 </r>
       <r>    3.2554   -0.0000 </r>
       <r>    6.8385    0.0000 </r>
       <r>    6.8385    0.0000 </r>
       <r>    7.2890    0.0000 </r>
       <r>    7.2890    0.0000 </r>
       <r>    7.2966    0.0000 </r>
       <r>    7.2966    0.0000 </r>
       <r>   10.8026    0.0000 </r>
       <r>   10.8026    0.0000 </r>
       <r>   12.7849    0.0000 </r>
       <r>   12.7914    0.0000 </r>
       <r>   12.8316    0.0000 </r>
      </set>
      <set comment="kpoint 3">
       <r>   -8.3425    1.0000 </r>
       <r>   -8.3425    1.0000 </r>
       <r>    2.6139    1.0000 </r>
       <r>    2.6139    1.0000 </r>
       <r>    2.8626    1.0000 </r>
       <r>    2.8626    1.0000 </r>
       <r>    2.9842    1.0293 </r>
       <r>    2.9842    1.0293 </r>
       <r>    3.3844   -0.0000 </r>
       <r>    3.3844   -0.0000 </r>
       <r>    6.8443    0.0000 </r>
       <r>    6.8443    0.0000 </r>
       <r>    7.2826    0.0000 </r>
       <r>    7.2826    0.0000 </r>
       <r>    7.3120    0.0000 </r>
       <r>    7.3120    0.0000 </r>
       <r>   10.8303    0.0000 </r>
       <r>   10.8303    0.0000 </r>
       <r>   12.6817    0.0000 </r>
       <r>   12.7326    0.0000 </r>
       <r>   12.8410    0.0000 </r>
      </set>
      <set comment="kpoint 4">
       <r>   -8.3362    1.0000 </r>
       <r>   -8.3362    1.0000 </r>
       <r>    2.5116    1.0000 </r>
       <r>    2.5116    1.0000 </r>
       <r>    2.8063    1.0000 </r>
       <r>    2.8063    1.0000 </r>
       <r>    2.9632    1.0291 </r>
       <r>    2.9632    1.0292 </r>
       <r>    3.5242   -0.0000 </r>
       <r>    3.5242   -0.0000 </r>
       <r>    6.8513    0.0000 </r>
       <r>    6.8513    0.0000 </r>
       <r>    7.2751    0.0000 </r>
       <r>    7.2751    0.0000 </r>
       <r>    7.3376    0.0000 </r>
       <r>    7.3376    0.0000 </r>
       <r>   10.8759    0.0000 </r>
       <r>   10.8761    0.0000 </r>
       <r>   12.5390    0.0000 </r>
       <r>   12.6681    0.0000 </r>
       <r>   12.8538    0.0000 </r>
      </set>
      <set comment="kpoint 5">
       <r>   -8.3275    1.0000 </r>
       <r>   -8.3275    1.0000 </r>
       <r>    2.3850    1.0000 </r>
       <r>    2.3850    1.0000 </r>
       <r>    2.7637    1.0000 </r>
       <r>    2.7637    1.0000 </r>
       <r>    2.9343    1.0069 </r>
       <r>    2.9343    1.0070 </r>
       <r>    3.6676   -0.0000 </r>
       <r>    3.6676   -0.0000 </r>
       <r>    6.8549    0.0000 </r>
       <r>    6.8549    0.0000 </r>
       <r>    7.2714    0.0000 </r>
       <r>    7.2714    0.0000 </r>
       <r>    7.3729    0.0000 </r>
       <r>    7.3729    0.0000 </r>
       <r>   10.9387    0.0000 </r>
       <r>   10.9676    0.0000 </r>
       <r>   12.8147    0.0000 </r>
       <r>   12.9419    0.0000 </r>
       <r>   13.0093    0.0000 </r>
      </set>
      <set comment="kpoint 6">
       <r>   -8.3162    1.0000 </r>
       <r>   -8.3162    1.0000 </r>
       <r>    2.2475    1.0000 </r>
       <r>    2.2475    1.0000 </r>
       <r>    2.7237    1.0000 </r>
       <r>    2.7237    1.0000 </r>
       <r>    2.8982    1.0003 </r>
       <r>    2.8982    1.0003 </r>
       <r>    3.8123   -0.0000 </r>
       <r>    3.8123   -0.0000 </r>
       <r>    6.8495    0.0000 </r>
       <r>    6.8495    0.0000 </r>
       <r>    7.2777    0.0000 </r>
       <r>    7.2777    0.0000 </r>
       <r>    7.4177    0.0000 </r>
       <r>    7.4177    0.0000 </r>
       <r>   11.0158    0.0000 </r>
       <r>   11.0204    0.0000 </r>
       <r>   12.7311    0.0000 </r>
       <r>   12.9968    0.0000 </r>
       <r>   13.0607    0.0000 </r>
      </set>
      <set comment="kpoint 7">
       <r>   -8.3025    1.0000 </r>
       <r>   -8.3025    1.0000 </r>
       <r>    2.1053    1.0000 </r>
       <r>    2.1053    1.0000 </r>
       <r>    2.6817    1.0000 </r>
       <r>    2.6817    1.0000 </r>
       <r>    2.8553    1.0000 </r>
       <r>    2.8553    1.0000 </r>
       <r>    3.9572   -0.0000 </r>
       <r>    3.9572   -0.0000 </r>
       <r>    6.8304    0.0000 </r>
       <r>    6.8304    0.0000 </r>
       <r>    7.2995    0.0000 </r>
       <r>    7.2995    0.0000 </r>
       <r>    7.4714    0.0000 </r>
       <r>    7.4714    0.0000 </r>
       <r>   11.1050    0.0000 </r>
       <r>   11.1051    0.0000 </r>
       <r>   12.0851    0.0000 </r>
       <r>   12.5562    0.0000 </r>
       <r>   12.9248    0.0000 </r>
      </set>
      <set comment="kpoint 8">
       <r>   -8.2863    1.0000 </r>
       <r>   -8.2863    1.0000 </r>
       <r>    1.9608    1.0000 </r>
       <r>    1.9608    1.0000 </r>
       <r>    2.6362    1.0000 </r>
       <r>    2.6362    1.0000 </r>
       <r>    2.8065    1.0000 </r>
       <r>    2.8065    1.0000 </r>
       <r>    4.1014   -0.0000 </r>
       <r>    4.1014   -0.0000 </r>
       <r>    6.7960    0.0000 </r>
       <r>    6.7960    0.0000 </r>
       <r>    7.3388    0.0000 </r>
       <r>    7.3388    0.0000 </r>
       <r>    7.5336    0.0000 </r>
       <r>    7.5336    0.0000 </r>
       <r>   11.2040    0.0000 </r>
       <r>   11.2042    0.0000 </r>
       <r>   11.8380    0.0000 </r>
       <r>   12.0962    0.0000 </r>
       <r>   12.8866    0.0000 </r>
      </set>
      <set comment="kpoint 9">
       <r>   -8.2677    1.0000 </r>
       <r>   -8.2677    1.0000 </r>
       <r>    1.8152    1.0000 </r>
       <r>    1.8152    1.0000 </r>
       <r>    2.5868    1.0000 </r>
       <r>    2.5868    1.0000 </r>
       <r>    2.7523    1.0000 </r>
       <r>    2.7523    1.0000 </r>
       <r>    4.2446   -0.0000 </r>
       <r>    4.2446   -0.0000 </r>
       <r>    6.7482    0.0000 </r>
       <r>    6.7482    0.0000 </r>
       <r>    7.3943    0.0000 </r>
       <r>    7.3943    0.0000 </r>
       <r>    7.6037    0.0000 </r>
       <r>    7.6037    0.0000 </r>
       <r>   11.3030    0.0000 </r>
       <r>   11.3688    0.0000 </r>
       <r>   11.6809    0.0000 </r>
       <r>   12.3546    0.0000 </r>
       <r>   13.1717    0.0000 </r>
      </set>
      <set comment="kpoint 10">
       <r>   -8.2466    1.0000 </r>
       <r>   -8.2466    1.0000 </r>
       <r>    1.6691    1.0000 </r>
       <r>    1.6691    1.0000 </r>
       <r>    2.5337    1.0000 </r>
       <r>    2.5337    1.0000 </r>
       <r>    2.6935    1.0000 </r>
       <r>    2.6935    1.0000 </r>
       <r>    4.3862   -0.0000 </r>
       <r>    4.3862   -0.0000 </r>
       <r>    6.6898    0.0000 </r>
       <r>    6.6898    0.0000 </r>
       <r>    7.4636    0.0000 </r>
       <r>    7.4636    0.0000 </r>
       <r>    7.6812    0.0000 </r>
       <r>    7.6812    0.0000 </r>
       <r>   11.3351    0.0000 </r>
       <r>   11.3442    0.0000 </r>
       <r>   11.6009    0.0000 </r>
       <r>   11.6638    0.0000 </r>
       <r>   12.9603    0.0000 </r>
      </set>
      <set comment="kpoint 11">
       <r>   -8.2232    1.0000 </r>
       <r>   -8.2232    1.0000 </r>
       <r>    1.5229    1.0000 </r>
       <r>    1.5229    1.0000 </r>
       <r>    2.4771    1.0000 </r>
       <r>    2.4771    1.0000 </r>
       <r>    2.6308    1.0000 </r>
       <r>    2.6308    1.0000 </r>
       <r>    4.5257    0.0000 </r>
       <r>    4.5257    0.0000 </r>
       <r>    6.6239    0.0000 </r>
       <r>    6.6239    0.0000 </r>
       <r>    7.5441    0.0000 </r>
       <r>    7.5441    0.0000 </r>
       <r>    7.7655    0.0000 </r>
       <r>    7.7655    0.0000 </r>
       <r>   11.2471    0.0000 </r>
       <r>   11.3368    0.0000 </r>
       <r>   11.6637    0.0000 </r>
       <r>   11.6697    0.0000 </r>
       <r>   12.9600    0.0000 </r>
      </set>
      <set comment="kpoint 12">
       <r>   -8.1973    1.0000 </r>
       <r>   -8.1973    1.0000 </r>
       <r>    1.3768    1.0000 </r>
       <r>    1.3768    1.0000 </r>
       <r>    2.4175    1.0000 </r>
       <r>    2.4175    1.0000 </r>
       <r>    2.5647    1.0000 </r>
       <r>    2.5647    1.0000 </r>
       <r>    4.6624    0.0000 </r>
       <r>    4.6624    0.0000 </r>
       <r>    6.5528    0.0000 </r>
       <r>    6.5528    0.0000 </r>
       <r>    7.6337    0.0000 </r>
       <r>    7.6337    0.0000 </r>
       <r>    7.8561    0.0000 </r>
       <r>    7.8561    0.0000 </r>
       <r>   11.1791    0.0000 </r>
       <r>   11.2397    0.0000 </r>
       <r>   12.3470    0.0000 </r>
       <r>   12.5293    0.0000 </r>
       <r>   13.7063    0.0000 </r>
      </set>
      <set comment="kpoint 13">
       <r>   -8.1692    1.0000 </r>
       <r>   -8.1692    1.0000 </r>
       <r>    1.2311    1.0000 </r>
       <r>    1.2311    1.0000 </r>
       <r>    2.3554    1.0000 </r>
       <r>    2.3554    1.0000 </r>
       <r>    2.4960    1.0000 </r>
       <r>    2.4960    1.0000 </r>
       <r>    4.7958    0.0000 </r>
       <r>    4.7958    0.0000 </r>
       <r>    6.4782    0.0000 </r>
       <r>    6.4782    0.0000 </r>
       <r>    7.7310    0.0000 </r>
       <r>    7.7310    0.0000 </r>
       <r>    7.9524    0.0000 </r>
       <r>    7.9524    0.0000 </r>
       <r>   11.1390    0.0000 </r>
       <r>   11.3218    0.0000 </r>
       <r>   12.4065    0.0000 </r>
       <r>   12.5532    0.0000 </r>
       <r>   13.2838    0.0000 </r>
      </set>
      <set comment="kpoint 14">
       <r>   -8.1387    1.0000 </r>
       <r>   -8.1387    1.0000 </r>
       <r>    1.0857    1.0000 </r>
       <r>    1.0857    1.0000 </r>
       <r>    2.2911    1.0000 </r>
       <r>    2.2911    1.0000 </r>
       <r>    2.4252    1.0000 </r>
       <r>    2.4252    1.0000 </r>
       <r>    4.9253    0.0000 </r>
       <r>    4.9253    0.0000 </r>
       <r>    6.4014    0.0000 </r>
       <r>    6.4014    0.0000 </r>
       <r>    7.8347    0.0000 </r>
       <r>    7.8347    0.0000 </r>
       <r>    8.0539    0.0000 </r>
       <r>    8.0539    0.0000 </r>
       <r>   10.7857    0.0000 </r>
       <r>   10.7863    0.0000 </r>
       <r>   12.1112    0.0000 </r>
       <r>   12.8916    0.0000 </r>
       <r>   13.0211    0.0000 </r>
      </set>
      <set comment="kpoint 15">
       <r>   -8.1059    1.0000 </r>
       <r>   -8.1059    1.0000 </r>
       <r>    0.9408    1.0000 </r>
       <r>    0.9408    1.0000 </r>
       <r>    2.2252    1.0000 </r>
       <r>    2.2252    1.0000 </r>
       <r>    2.3528    1.0000 </r>
       <r>    2.3528    1.0000 </r>
       <r>    5.0498    0.0000 </r>
       <r>    5.0498    0.0000 </r>
       <r>    6.3236    0.0000 </r>
       <r>    6.3236    0.0000 </r>
       <r>    7.9441    0.0000 </r>
       <r>    7.9441    0.0000 </r>
       <r>    8.1603    0.0000 </r>
       <r>    8.1603    0.0000 </r>
       <r>   10.6449    0.0000 </r>
       <r>   10.6449    0.0000 </r>
       <r>   12.2849    0.0000 </r>
       <r>   12.8162    0.0000 </r>
       <r>   13.2602    0.0000 </r>
      </set>
      <set comment="kpoint 16">
       <r>   -8.0708    1.0000 </r>
       <r>   -8.0708    1.0000 </r>
       <r>    0.7965    1.0000 </r>
       <r>    0.7965    1.0000 </r>
       <r>    2.1580    1.0000 </r>
       <r>    2.1580    1.0000 </r>
       <r>    2.2792    1.0000 </r>
       <r>    2.2792    1.0000 </r>
       <r>    5.1687    0.0000 </r>
       <r>    5.1687    0.0000 </r>
       <r>    6.2456    0.0000 </r>
       <r>    6.2456    0.0000 </r>
       <r>    8.0582    0.0000 </r>
       <r>    8.0582    0.0000 </r>
       <r>    8.2710    0.0000 </r>
       <r>    8.2710    0.0000 </r>
       <r>   10.5151    0.0000 </r>
       <r>   10.5573    0.0000 </r>
       <r>   12.4567    0.0000 </r>
       <r>   12.8566    0.0000 </r>
       <r>   13.1047    0.0000 </r>
      </set>
      <set comment="kpoint 17">
       <r>   -8.0336    1.0000 </r>
       <r>   -8.0336    1.0000 </r>
       <r>    0.6528    1.0000 </r>
       <r>    0.6528    1.0000 </r>
       <r>    2.0899    1.0000 </r>
       <r>    2.0899    1.0000 </r>
       <r>    2.2050    1.0000 </r>
       <r>    2.2050    1.0000 </r>
       <r>    5.2807    0.0000 </r>
       <r>    5.2807    0.0000 </r>
       <r>    6.1684    0.0000 </r>
       <r>    6.1684    0.0000 </r>
       <r>    8.1765    0.0000 </r>
       <r>    8.1765    0.0000 </r>
       <r>    8.3856    0.0000 </r>
       <r>    8.3856    0.0000 </r>
       <r>   10.4006    0.0000 </r>
       <r>   10.4210    0.0000 </r>
       <r>   12.7411    0.0000 </r>
       <r>   12.9335    0.0000 </r>
       <r>   14.0651    0.0000 </r>
      </set>
      <set comment="kpoint 18">
       <r>   -7.9942    1.0000 </r>
       <r>   -7.9942    1.0000 </r>
       <r>    0.5099    1.0000 </r>
       <r>    0.5099    1.0000 </r>
       <r>    2.0213    1.0000 </r>
       <r>    2.0213    1.0000 </r>
       <r>    2.1304    1.0000 </r>
       <r>    2.1304    1.0000 </r>
       <r>    5.3846    0.0000 </r>
       <r>    5.3846    0.0000 </r>
       <r>    6.0928    0.0000 </r>
       <r>    6.0928    0.0000 </r>
       <r>    8.2985    0.0000 </r>
       <r>    8.2985    0.0000 </r>
       <r>    8.5039    0.0000 </r>
       <r>    8.5039    0.0000 </r>
       <r>   10.3794    0.0000 </r>
       <r>   10.4907    0.0000 </r>
       <r>   13.2082    0.0000 </r>
       <r>   13.3712    0.0000 </r>
       <r>   14.1450    0.0000 </r>
      </set>
      <set comment="kpoint 19">
       <r>   -7.9527    1.0000 </r>
       <r>   -7.9527    1.0000 </r>
       <r>    0.3678    1.0000 </r>
       <r>    0.3678    1.0000 </r>
       <r>    1.9526    1.0000 </r>
       <r>    1.9526    1.0000 </r>
       <r>    2.0559    1.0000 </r>
       <r>    2.0559    1.0000 </r>
       <r>    5.4785    0.0000 </r>
       <r>    5.4785    0.0000 </r>
       <r>    6.0202    0.0000 </r>
       <r>    6.0202    0.0000 </r>
       <r>    8.4237    0.0000 </r>
       <r>    8.4237    0.0000 </r>
       <r>    8.6253    0.0000 </r>
       <r>    8.6253    0.0000 </r>
       <r>   10.1866    0.0000 </r>
       <r>   10.1866    0.0000 </r>
       <r>   13.0333    0.0000 </r>
       <r>   13.1646    0.0000 </r>
       <r>   13.2756    0.0000 </r>
      </set>
      <set comment="kpoint 20">
       <r>   -7.9093    1.0000 </r>
       <r>   -7.9093    1.0000 </r>
       <r>    0.2266    1.0000 </r>
       <r>    0.2266    1.0000 </r>
       <r>    1.8839    1.0000 </r>
       <r>    1.8839    1.0000 </r>
       <r>    1.9817    1.0000 </r>
       <r>    1.9817    1.0000 </r>
       <r>    5.5596    0.0000 </r>
       <r>    5.5596    0.0000 </r>
       <r>    5.9526    0.0000 </r>
       <r>    5.9526    0.0000 </r>
       <r>    8.5518    0.0000 </r>
       <r>    8.5518    0.0000 </r>
       <r>    8.7497    0.0000 </r>
       <r>    8.7497    0.0000 </r>
       <r>   10.1049    0.0000 </r>
       <r>   10.1057    0.0000 </r>
       <r>   13.2247    0.0000 </r>
       <r>   13.3220    0.0000 </r>
       <r>   13.3651    0.0000 </r>
      </set>
      <set comment="kpoint 21">
       <r>   -7.8638    1.0000 </r>
       <r>   -7.8638    1.0000 </r>
       <r>    0.0864    1.0000 </r>
       <r>    0.0864    1.0000 </r>
       <r>    1.8157    1.0000 </r>
       <r>    1.8157    1.0000 </r>
       <r>    1.9082    1.0000 </r>
       <r>    1.9082    1.0000 </r>
       <r>    5.6220    0.0000 </r>
       <r>    5.6220    0.0000 </r>
       <r>    5.8954    0.0000 </r>
       <r>    5.8954    0.0000 </r>
       <r>    8.6823    0.0000 </r>
       <r>    8.6823    0.0000 </r>
       <r>    8.8768    0.0000 </r>
       <r>    8.8769    0.0000 </r>
       <r>   10.0388    0.0000 </r>
       <r>   10.0666    0.0000 </r>
       <r>   13.3964    0.0000 </r>
       <r>   13.4248    0.0000 </r>
       <r>   13.5322    0.0000 </r>
      </set>
      <set comment="kpoint 22">
       <r>   -7.8165    1.0000 </r>
       <r>   -7.8165    1.0000 </r>
       <r>   -0.0528    1.0000 </r>
       <r>   -0.0528    1.0000 </r>
       <r>    1.7481    1.0000 </r>
       <r>    1.7481    1.0000 </r>
       <r>    1.8355    1.0000 </r>
       <r>    1.8355    1.0000 </r>
       <r>    5.6526    0.0000 </r>
       <r>    5.6526    0.0000 </r>
       <r>    5.8610    0.0000 </r>
       <r>    5.8610    0.0000 </r>
       <r>    8.8150    0.0000 </r>
       <r>    8.8150    0.0000 </r>
       <r>    9.0062    0.0000 </r>
       <r>    9.0063    0.0000 </r>
       <r>    9.9910    0.0000 </r>
       <r>   10.0269    0.0000 </r>
       <r>   13.4873    0.0000 </r>
       <r>   13.5293    0.0000 </r>
       <r>   13.6739    0.0000 </r>
      </set>
      <set comment="kpoint 23">
       <r>   -7.7673    1.0000 </r>
       <r>   -7.7673    1.0000 </r>
       <r>   -0.1908    1.0000 </r>
       <r>   -0.1908    1.0000 </r>
       <r>    1.6814    1.0000 </r>
       <r>    1.6814    1.0000 </r>
       <r>    1.7639    1.0000 </r>
       <r>    1.7639    1.0000 </r>
       <r>    5.6391    0.0000 </r>
       <r>    5.6391    0.0000 </r>
       <r>    5.8614    0.0000 </r>
       <r>    5.8614    0.0000 </r>
       <r>    8.9495    0.0000 </r>
       <r>    8.9495    0.0000 </r>
       <r>    9.1376    0.0000 </r>
       <r>    9.1376    0.0000 </r>
       <r>    9.9541    0.0000 </r>
       <r>    9.9541    0.0000 </r>
       <r>   13.3802    0.0000 </r>
       <r>   13.3920    0.0000 </r>
       <r>   14.3253    0.0000 </r>
      </set>
      <set comment="kpoint 24">
       <r>   -7.7165    1.0000 </r>
       <r>   -7.7165    1.0000 </r>
       <r>   -0.3276    1.0000 </r>
       <r>   -0.3276    1.0000 </r>
       <r>    1.6158    1.0000 </r>
       <r>    1.6158    1.0000 </r>
       <r>    1.6937    1.0000 </r>
       <r>    1.6937    1.0000 </r>
       <r>    5.5956    0.0000 </r>
       <r>    5.5956    0.0000 </r>
       <r>    5.8820    0.0000 </r>
       <r>    5.8820    0.0000 </r>
       <r>    9.0857    0.0000 </r>
       <r>    9.0857    0.0000 </r>
       <r>    9.2710    0.0000 </r>
       <r>    9.2710    0.0000 </r>
       <r>    9.9381    0.0000 </r>
       <r>    9.9381    0.0000 </r>
       <r>   13.4234    0.0000 </r>
       <r>   13.6403    0.0000 </r>
       <r>   14.3387    0.0000 </r>
      </set>
      <set comment="kpoint 25">
       <r>   -7.6640    1.0000 </r>
       <r>   -7.6640    1.0000 </r>
       <r>   -0.4630    1.0000 </r>
       <r>   -0.4630    1.0000 </r>
       <r>    1.5514    1.0000 </r>
       <r>    1.5514    1.0000 </r>
       <r>    1.6249    1.0000 </r>
       <r>    1.6249    1.0000 </r>
       <r>    5.5415    0.0000 </r>
       <r>    5.5415    0.0000 </r>
       <r>    5.9037    0.0000 </r>
       <r>    5.9037    0.0000 </r>
       <r>    9.2232    0.0000 </r>
       <r>    9.2232    0.0000 </r>
       <r>    9.4058    0.0000 </r>
       <r>    9.4058    0.0000 </r>
       <r>    9.9398    0.0000 </r>
       <r>    9.9398    0.0000 </r>
       <r>   13.4751    0.0000 </r>
       <r>   13.4839    0.0000 </r>
       <r>   14.7302    0.0000 </r>
      </set>
      <set comment="kpoint 26">
       <r>   -7.6101    1.0000 </r>
       <r>   -7.6101    1.0000 </r>
       <r>   -0.5969    1.0000 </r>
       <r>   -0.5969    1.0000 </r>
       <r>    1.4886    1.0000 </r>
       <r>    1.4886    1.0000 </r>
       <r>    1.5578    1.0000 </r>
       <r>    1.5578    1.0000 </r>
       <r>    5.4847    0.0000 </r>
       <r>    5.4847    0.0000 </r>
       <r>    5.9187    0.0000 </r>
       <r>    5.9187    0.0000 </r>
       <r>    9.3618    0.0000 </r>
       <r>    9.3618    0.0000 </r>
       <r>    9.5419    0.0000 </r>
       <r>    9.5419    0.0000 </r>
       <r>    9.9592    0.0000 </r>
       <r>    9.9592    0.0000 </r>
       <r>   13.5337    0.0000 </r>
       <r>   13.5470    0.0000 </r>
       <r>   14.7077    0.0000 </r>
      </set>
      <set comment="kpoint 27">
       <r>   -7.5548    1.0000 </r>
       <r>   -7.5548    1.0000 </r>
       <r>   -0.7291    1.0000 </r>
       <r>   -0.7291    1.0000 </r>
       <r>    1.4274    1.0000 </r>
       <r>    1.4274    1.0000 </r>
       <r>    1.4925    1.0000 </r>
       <r>    1.4925    1.0000 </r>
       <r>    5.4281    0.0000 </r>
       <r>    5.4281    0.0000 </r>
       <r>    5.9248    0.0000 </r>
       <r>    5.9248    0.0000 </r>
       <r>    9.5014    0.0000 </r>
       <r>    9.5015    0.0000 </r>
       <r>    9.6792    0.0000 </r>
       <r>    9.6795    0.0000 </r>
       <r>    9.9953    0.0000 </r>
       <r>    9.9962    0.0000 </r>
       <r>   13.6128    0.0000 </r>
       <r>   13.7142    0.0000 </r>
       <r>   14.8997    0.0000 </r>
      </set>
      <set comment="kpoint 28">
       <r>   -7.4983    1.0000 </r>
       <r>   -7.4983    1.0000 </r>
       <r>   -0.8596    1.0000 </r>
       <r>   -0.8596    1.0000 </r>
       <r>    1.3680    1.0000 </r>
       <r>    1.3680    1.0000 </r>
       <r>    1.4292    1.0000 </r>
       <r>    1.4292    1.0000 </r>
       <r>    5.3731    0.0000 </r>
       <r>    5.3731    0.0000 </r>
       <r>    5.9217    0.0000 </r>
       <r>    5.9217    0.0000 </r>
       <r>    9.6410    0.0000 </r>
       <r>    9.6426    0.0000 </r>
       <r>    9.8163    0.0000 </r>
       <r>    9.8176    0.0000 </r>
       <r>   10.0494    0.0000 </r>
       <r>   10.0547    0.0000 </r>
       <r>   13.8739    0.0000 </r>
       <r>   13.9326    0.0000 </r>
       <r>   14.7035    0.0000 </r>
      </set>
      <set comment="kpoint 29">
       <r>   -7.4407    1.0000 </r>
       <r>   -7.4407    1.0000 </r>
       <r>   -0.9880    1.0000 </r>
       <r>   -0.9880    1.0000 </r>
       <r>    1.3105    1.0000 </r>
       <r>    1.3105    1.0000 </r>
       <r>    1.3679    1.0000 </r>
       <r>    1.3679    1.0000 </r>
       <r>    5.3202    0.0000 </r>
       <r>    5.3202    0.0000 </r>
       <r>    5.9098    0.0000 </r>
       <r>    5.9098    0.0000 </r>
       <r>    9.7809    0.0000 </r>
       <r>    9.7822    0.0000 </r>
       <r>    9.9533    0.0000 </r>
       <r>    9.9547    0.0000 </r>
       <r>   10.1178    0.0000 </r>
       <r>   10.1181    0.0000 </r>
       <r>   13.7303    0.0000 </r>
       <r>   13.7331    0.0000 </r>
       <r>   15.1614    0.0000 </r>
      </set>
      <set comment="kpoint 30">
       <r>   -7.3822    1.0000 </r>
       <r>   -7.3822    1.0000 </r>
       <r>   -1.1143    1.0000 </r>
       <r>   -1.1143    1.0000 </r>
       <r>    1.2550    1.0000 </r>
       <r>    1.2550    1.0000 </r>
       <r>    1.3089    1.0000 </r>
       <r>    1.3089    1.0000 </r>
       <r>    5.2698    0.0000 </r>
       <r>    5.2698    0.0000 </r>
       <r>    5.8901    0.0000 </r>
       <r>    5.8901    0.0000 </r>
       <r>    9.9204    0.0000 </r>
       <r>    9.9215    0.0000 </r>
       <r>   10.0893    0.0000 </r>
       <r>   10.0905    0.0000 </r>
       <r>   10.2035    0.0000 </r>
       <r>   10.2038    0.0000 </r>
       <r>   13.7845    0.0000 </r>
       <r>   13.8956    0.0000 </r>
       <r>   15.1785    0.0000 </r>
      </set>
      <set comment="kpoint 31">
       <r>   -7.3231    1.0000 </r>
       <r>   -7.3231    1.0000 </r>
       <r>   -1.2382    1.0000 </r>
       <r>   -1.2382    1.0000 </r>
       <r>    1.2017    1.0000 </r>
       <r>    1.2017    1.0000 </r>
       <r>    1.2521    1.0000 </r>
       <r>    1.2521    1.0000 </r>
       <r>    5.2220    0.0000 </r>
       <r>    5.2220    0.0000 </r>
       <r>    5.8637    0.0000 </r>
       <r>    5.8637    0.0000 </r>
       <r>   10.0593    0.0000 </r>
       <r>   10.0610    0.0000 </r>
       <r>   10.2224    0.0000 </r>
       <r>   10.2247    0.0000 </r>
       <r>   10.3032    0.0000 </r>
       <r>   10.3055    0.0000 </r>
       <r>   13.8467    0.0000 </r>
       <r>   13.9412    0.0000 </r>
       <r>   15.3501    0.0000 </r>
      </set>
      <set comment="kpoint 32">
       <r>   -7.2634    1.0000 </r>
       <r>   -7.2634    1.0000 </r>
       <r>   -1.3595    1.0000 </r>
       <r>   -1.3595    1.0000 </r>
       <r>    1.1507    1.0000 </r>
       <r>    1.1507    1.0000 </r>
       <r>    1.1977    1.0000 </r>
       <r>    1.1977    1.0000 </r>
       <r>    5.1770    0.0000 </r>
       <r>    5.1770    0.0000 </r>
       <r>    5.8317    0.0000 </r>
       <r>    5.8317    0.0000 </r>
       <r>   10.1970    0.0000 </r>
       <r>   10.1995    0.0000 </r>
       <r>   10.3503    0.0000 </r>
       <r>   10.3567    0.0000 </r>
       <r>   10.4168    0.0000 </r>
       <r>   10.4239    0.0000 </r>
       <r>   13.9100    0.0000 </r>
       <r>   13.9920    0.0000 </r>
       <r>   15.5479    0.0000 </r>
      </set>
      <set comment="kpoint 33">
       <r>   -7.2035    1.0000 </r>
       <r>   -7.2035    1.0000 </r>
       <r>   -1.4779    1.0000 </r>
       <r>   -1.4779    1.0000 </r>
       <r>    1.1020    1.0000 </r>
       <r>    1.1020    1.0000 </r>
       <r>    1.1458    1.0000 </r>
       <r>    1.1458    1.0000 </r>
       <r>    5.1348    0.0000 </r>
       <r>    5.1348    0.0000 </r>
       <r>    5.7955    0.0000 </r>
       <r>    5.7955    0.0000 </r>
       <r>   10.3337    0.0000 </r>
       <r>   10.3370    0.0000 </r>
       <r>   10.4739    0.0000 </r>
       <r>   10.4903    0.0000 </r>
       <r>   10.5396    0.0000 </r>
       <r>   10.5553    0.0000 </r>
       <r>   13.9741    0.0000 </r>
       <r>   14.0918    0.0000 </r>
       <r>   15.6928    0.0000 </r>
      </set>
      <set comment="kpoint 34">
       <r>   -7.1436    1.0000 </r>
       <r>   -7.1436    1.0000 </r>
       <r>   -1.5931    1.0000 </r>
       <r>   -1.5931    1.0000 </r>
       <r>    1.0557    1.0000 </r>
       <r>    1.0557    1.0000 </r>
       <r>    1.0965    1.0000 </r>
       <r>    1.0965    1.0000 </r>
       <r>    5.0956    0.0000 </r>
       <r>    5.0956    0.0000 </r>
       <r>    5.7560    0.0000 </r>
       <r>    5.7560    0.0000 </r>
       <r>   10.4691    0.0000 </r>
       <r>   10.4723    0.0000 </r>
       <r>   10.5973    0.0000 </r>
       <r>   10.6231    0.0000 </r>
       <r>   10.6705    0.0000 </r>
       <r>   10.6960    0.0000 </r>
       <r>   14.0291    0.0000 </r>
       <r>   14.1462    0.0000 </r>
       <r>   15.8318    0.0000 </r>
      </set>
      <set comment="kpoint 35">
       <r>   -7.0840    1.0000 </r>
       <r>   -7.0840    1.0000 </r>
       <r>   -1.7048    1.0000 </r>
       <r>   -1.7048    1.0000 </r>
       <r>    1.0119    1.0000 </r>
       <r>    1.0119    1.0000 </r>
       <r>    1.0497    1.0000 </r>
       <r>    1.0497    1.0000 </r>
       <r>    5.0594    0.0000 </r>
       <r>    5.0594    0.0000 </r>
       <r>    5.7143    0.0000 </r>
       <r>    5.7143    0.0000 </r>
       <r>   10.6036    0.0000 </r>
       <r>   10.6072    0.0000 </r>
       <r>   10.7260    0.0000 </r>
       <r>   10.7537    0.0000 </r>
       <r>   10.8084    0.0000 </r>
       <r>   10.8364    0.0000 </r>
       <r>   14.0966    0.0000 </r>
       <r>   14.2054    0.0000 </r>
       <r>   16.0092    0.0000 </r>
      </set>
      <set comment="kpoint 36">
       <r>   -7.0250    1.0000 </r>
       <r>   -7.0250    1.0000 </r>
       <r>   -1.8127    1.0000 </r>
       <r>   -1.8127    1.0000 </r>
       <r>    0.9708    1.0000 </r>
       <r>    0.9708    1.0000 </r>
       <r>    1.0057    1.0000 </r>
       <r>    1.0057    1.0000 </r>
       <r>    5.0261    0.0000 </r>
       <r>    5.0261    0.0000 </r>
       <r>    5.6714    0.0000 </r>
       <r>    5.6714    0.0000 </r>
       <r>   10.7377    0.0000 </r>
       <r>   10.7418    0.0000 </r>
       <r>   10.8579    0.0000 </r>
       <r>   10.8893    0.0000 </r>
       <r>   10.9442    0.0000 </r>
       <r>   10.9767    0.0000 </r>
       <r>   14.1650    0.0000 </r>
       <r>   14.2667    0.0000 </r>
       <r>   16.1127    0.0000 </r>
      </set>
      <set comment="kpoint 37">
       <r>   -6.9671    1.0000 </r>
       <r>   -6.9671    1.0000 </r>
       <r>   -1.9164    1.0000 </r>
       <r>   -1.9164    1.0000 </r>
       <r>    0.9323    1.0000 </r>
       <r>    0.9323    1.0000 </r>
       <r>    0.9643    1.0000 </r>
       <r>    0.9643    1.0000 </r>
       <r>    4.9957    0.0000 </r>
       <r>    4.9957    0.0000 </r>
       <r>    5.6280    0.0000 </r>
       <r>    5.6280    0.0000 </r>
       <r>   10.8713    0.0000 </r>
       <r>   10.8759    0.0000 </r>
       <r>   10.9913    0.0000 </r>
       <r>   11.0259    0.0000 </r>
       <r>   11.0795    0.0000 </r>
       <r>   11.1162    0.0000 </r>
       <r>   14.2341    0.0000 </r>
       <r>   14.3262    0.0000 </r>
       <r>   16.1952    0.0000 </r>
      </set>
      <set comment="kpoint 38">
       <r>   -6.9105    1.0000 </r>
       <r>   -6.9105    1.0000 </r>
       <r>   -2.0154    1.0000 </r>
       <r>   -2.0154    1.0000 </r>
       <r>    0.8965    1.0000 </r>
       <r>    0.8965    1.0000 </r>
       <r>    0.9258    1.0000 </r>
       <r>    0.9258    1.0000 </r>
       <r>    4.9682    0.0000 </r>
       <r>    4.9682    0.0000 </r>
       <r>    5.5850    0.0000 </r>
       <r>    5.5850    0.0000 </r>
       <r>   11.0058    0.0000 </r>
       <r>   11.0122    0.0000 </r>
       <r>   11.1244    0.0000 </r>
       <r>   11.1719    0.0000 </r>
       <r>   11.2046    0.0000 </r>
       <r>   11.2537    0.0000 </r>
       <r>   14.3042    0.0000 </r>
       <r>   14.4483    0.0000 </r>
       <r>   16.3536    0.0000 </r>
      </set>
      <set comment="kpoint 39">
       <r>   -6.8557    1.0000 </r>
       <r>   -6.8557    1.0000 </r>
       <r>   -2.1094    1.0000 </r>
       <r>   -2.1094    1.0000 </r>
       <r>    0.8634    1.0000 </r>
       <r>    0.8634    1.0000 </r>
       <r>    0.8901    1.0000 </r>
       <r>    0.8901    1.0000 </r>
       <r>    4.9437    0.0000 </r>
       <r>    4.9437    0.0000 </r>
       <r>    5.5429    0.0000 </r>
       <r>    5.5429    0.0000 </r>
       <r>   11.1377    0.0000 </r>
       <r>   11.1452    0.0000 </r>
       <r>   11.2560    0.0000 </r>
       <r>   11.3068    0.0000 </r>
       <r>   11.3374    0.0000 </r>
       <r>   11.3894    0.0000 </r>
       <r>   14.3738    0.0000 </r>
       <r>   14.5143    0.0000 </r>
       <r>   16.3983    0.0000 </r>
      </set>
      <set comment="kpoint 40">
       <r>   -6.8031    1.0000 </r>
       <r>   -6.8031    1.0000 </r>
       <r>   -2.1978    1.0000 </r>
       <r>   -2.1978    1.0000 </r>
       <r>    0.8332    1.0000 </r>
       <r>    0.8332    1.0000 </r>
       <r>    0.8573    1.0000 </r>
       <r>    0.8573    1.0000 </r>
       <r>    4.9219    0.0000 </r>
       <r>    4.9219    0.0000 </r>
       <r>    5.5024    0.0000 </r>
       <r>    5.5024    0.0000 </r>
       <r>   11.2679    0.0000 </r>
       <r>   11.2775    0.0000 </r>
       <r>   11.3846    0.0000 </r>
       <r>   11.4396    0.0000 </r>
       <r>   11.4665    0.0000 </r>
       <r>   11.5218    0.0000 </r>
       <r>   14.4429    0.0000 </r>
       <r>   14.5837    0.0000 </r>
       <r>   16.4171    0.0000 </r>
      </set>
      <set comment="kpoint 41">
       <r>   -6.7532    1.0000 </r>
       <r>   -6.7532    1.0000 </r>
       <r>   -2.2801    1.0000 </r>
       <r>   -2.2801    1.0000 </r>
       <r>    0.8059    1.0000 </r>
       <r>    0.8059    1.0000 </r>
       <r>    0.8274    1.0000 </r>
       <r>    0.8274    1.0000 </r>
       <r>    4.9028    0.0000 </r>
       <r>    4.9028    0.0000 </r>
       <r>    5.4640    0.0000 </r>
[...]
       <r>    10.2558     0.0000     0.0000 </r>
       <r>    10.3496     0.0000     0.0000 </r>
       <r>    10.4434     0.0000     0.0000 </r>
       <r>    10.5372     0.0000     0.0000 </r>
       <r>    10.6310     0.0000     0.0000 </r>
       <r>    10.7248     0.0000     0.0000 </r>
       <r>    10.8185     0.0000     0.0000 </r>
       <r>    10.9123     0.0000     0.0000 </r>
       <r>    11.0061     0.0000     0.0000 </r>
       <r>    11.0999     0.0000     0.0000 </r>
       <r>    11.1937     0.0000     0.0000 </r>
       <r>    11.2875     0.0000     0.0000 </r>
       <r>    11.3813     0.0000     0.0000 </r>
       <r>    11.4750     0.0000     0.0000 </r>
       <r>    11.5688     0.0000     0.0000 </r>
       <r>    11.6626     0.0000     0.0000 </r>
       <r>    11.7564     0.0000     0.0000 </r>
       <r>    11.8502     0.0000     0.0000 </r>
       <r>    11.9440     0.0000     0.0000 </r>
       <r>    12.0377     0.0000     0.0000 </r>
       <r>    12.1315     0.0000     0.0000 </r>
       <r>    12.2253     0.0000     0.0000 </r>
       <r>    12.3191     0.0000     0.0000 </r>
       <r>    12.4129     0.0000     0.0000 </r>
       <r>    12.5067     0.0000     0.0000 </r>
       <r>    12.6004     0.0000     0.0000 </r>
       <r>    12.6942     0.0000     0.0000 </r>
       <r>    12.7880     0.0000     0.0000 </r>
       <r>    12.8818     0.0000     0.0000 </r>
       <r>    12.9756     0.0000     0.0000 </r>
       <r>    13.0694     0.0000     0.0000 </r>
       <r>    13.1631     0.0000     0.0000 </r>
       <r>    13.2569     0.0000     0.0000 </r>
       <r>    13.3507     0.0000     0.0000 </r>
       <r>    13.4445     0.0000     0.0000 </r>
       <r>    13.5383     0.0000     0.0000 </r>
       <r>    13.6321     0.0000     0.0000 </r>
       <r>    13.7258     0.0000     0.0000 </r>
       <r>    13.8196     0.0000     0.0000 </r>
       <r>    13.9134     0.0000     0.0000 </r>
       <r>    14.0072     0.0000     0.0000 </r>
       <r>    14.1010     0.0000     0.0000 </r>
       <r>    14.1948     0.0000     0.0000 </r>
       <r>    14.2886     0.0000     0.0000 </r>
       <r>    14.3823     0.0000     0.0000 </r>
       <r>    14.4761     0.0000     0.0000 </r>
       <r>    14.5699     0.0000     0.0000 </r>
       <r>    14.6637     0.0000     0.0000 </r>
       <r>    14.7575     0.0000     0.0000 </r>
       <r>    14.8513     0.0000     0.0000 </r>
       <r>    14.9450     0.0000     0.0000 </r>
       <r>    15.0388     0.0000     0.0000 </r>
       <r>    15.1326     0.0000     0.0000 </r>
       <r>    15.2264     0.0000     0.0000 </r>
       <r>    15.3202     0.0000     0.0000 </r>
       <r>    15.4140     0.0000     0.0000 </r>
       <r>    15.5077     0.0000     0.0000 </r>
       <r>    15.6015     0.0000     0.0000 </r>
       <r>    15.6953     0.0000     0.0000 </r>
       <r>    15.7891     0.0000     0.0000 </r>
       <r>    15.8829     0.0000     0.0000 </r>
       <r>    15.9767     0.0000     0.0000 </r>
       <r>    16.0704     0.0000     0.0000 </r>
       <r>    16.1642     0.0000     0.0000 </r>
       <r>    16.2580     0.0000     0.0000 </r>
       <r>    16.3518     0.0000     0.0000 </r>
       <r>    16.4456     0.0000     0.0000 </r>
       <r>    16.5394     0.0000     0.0000 </r>
       <r>    16.6332     0.0000     0.0000 </r>
       <r>    16.7269     0.0000     0.0000 </r>
       <r>    16.8207     0.0000     0.0000 </r>
       <r>    16.9145     0.0000     0.0000 </r>
       <r>    17.0083     0.0000     0.0000 </r>
       <r>    17.1021     0.0000     0.0000 </r>
       <r>    17.1959     0.0000     0.0000 </r>
       <r>    17.2896     0.0000     0.0000 </r>
       <r>    17.3834     0.0000     0.0000 </r>
       <r>    17.4772     0.0000     0.0000 </r>
       <r>    17.5710     0.0000     0.0000 </r>
       <r>    17.6648     0.0000     0.0000 </r>
       <r>    17.7586     0.0000     0.0000 </r>
       <r>    17.8523     0.0000     0.0000 </r>
       <r>    17.9461     0.0000     0.0000 </r>
       <r>    18.0399     0.0000     0.0000 </r>
       <r>    18.1337     0.0000     0.0000 </r>
       <r>    18.2275     0.0000     0.0000 </r>
       <r>    18.3213     0.0000     0.0000 </r>
       <r>    18.4150     0.0000     0.0000 </r>
       <r>    18.5088     0.0000     0.0000 </r>
      </set>
      <set comment="spin 4">
       <r>    -9.6264     0.0000     0.0000 </r>
       <r>    -9.5326     0.0000     0.0000 </r>
       <r>    -9.4388     0.0000     0.0000 </r>
       <r>    -9.3450     0.0000     0.0000 </r>
       <r>    -9.2512     0.0000     0.0000 </r>
       <r>    -9.1574     0.0000     0.0000 </r>
       <r>    -9.0637     0.0000     0.0000 </r>
       <r>    -8.9699     0.0000     0.0000 </r>
       <r>    -8.8761     0.0000     0.0000 </r>
       <r>    -8.7823     0.0000     0.0000 </r>
       <r>    -8.6885     0.0000     0.0000 </r>
       <r>    -8.5947     0.0000     0.0000 </r>
       <r>    -8.5010     0.0000     0.0000 </r>
       <r>    -8.4072     0.0000     0.0000 </r>
       <r>    -8.3134     0.0000     0.0000 </r>
       <r>    -8.2196     0.0000     0.0000 </r>
       <r>    -8.1258     0.0000     0.0000 </r>
       <r>    -8.0320     0.0000     0.0000 </r>
       <r>    -7.9382     0.0000     0.0000 </r>
       <r>    -7.8445     0.0000     0.0000 </r>
       <r>    -7.7507     0.0000     0.0000 </r>
       <r>    -7.6569     0.0000     0.0000 </r>
       <r>    -7.5631     0.0000     0.0000 </r>
       <r>    -7.4693     0.0000     0.0000 </r>
       <r>    -7.3755     0.0000     0.0000 </r>
       <r>    -7.2818     0.0000     0.0000 </r>
       <r>    -7.1880     0.0000     0.0000 </r>
       <r>    -7.0942     0.0000     0.0000 </r>
       <r>    -7.0004     0.0000     0.0000 </r>
       <r>    -6.9066     0.0000     0.0000 </r>
       <r>    -6.8128     0.0000     0.0000 </r>
       <r>    -6.7191     0.0000     0.0000 </r>
       <r>    -6.6253     0.0000     0.0000 </r>
       <r>    -6.5315     0.0000     0.0000 </r>
       <r>    -6.4377     0.0000     0.0000 </r>
       <r>    -6.3439     0.0000     0.0000 </r>
       <r>    -6.2501     0.0000     0.0000 </r>
       <r>    -6.1564     0.0000     0.0000 </r>
       <r>    -6.0626     0.0000     0.0000 </r>
       <r>    -5.9688     0.0000     0.0000 </r>
       <r>    -5.8750     0.0000     0.0000 </r>
       <r>    -5.7812     0.0000     0.0000 </r>
       <r>    -5.6874     0.0000     0.0000 </r>
       <r>    -5.5937     0.0000     0.0000 </r>
       <r>    -5.4999     0.0000     0.0000 </r>
       <r>    -5.4061     0.0000     0.0000 </r>
       <r>    -5.3123     0.0000     0.0000 </r>
       <r>    -5.2185     0.0000     0.0000 </r>
       <r>    -5.1247     0.0000     0.0000 </r>
       <r>    -5.0309     0.0000     0.0000 </r>
       <r>    -4.9372     0.0000     0.0000 </r>
       <r>    -4.8434     0.0000     0.0000 </r>
       <r>    -4.7496     0.0000     0.0000 </r>
       <r>    -4.6558     0.0000     0.0000 </r>
       <r>    -4.5620     0.0000     0.0000 </r>
       <r>    -4.4682     0.0000     0.0000 </r>
       <r>    -4.3745     0.0000     0.0000 </r>
       <r>    -4.2807     0.0000     0.0000 </r>
       <r>    -4.1869     0.0000     0.0000 </r>
       <r>    -4.0931     0.0000     0.0000 </r>
       <r>    -3.9993     0.0000     0.0000 </r>
       <r>    -3.9055     0.0000     0.0000 </r>
       <r>    -3.8118     0.0000     0.0000 </r>
       <r>    -3.7180     0.0000     0.0000 </r>
       <r>    -3.6242     0.0000     0.0000 </r>
       <r>    -3.5304     0.0000     0.0000 </r>
       <r>    -3.4366     0.0000     0.0000 </r>
       <r>    -3.3428     0.0000     0.0000 </r>
       <r>    -3.2491     0.0000     0.0000 </r>
       <r>    -3.1553     0.0000     0.0000 </r>
       <r>    -3.0615     0.0000     0.0000 </r>
       <r>    -2.9677     0.0000     0.0000 </r>
       <r>    -2.8739     0.0000     0.0000 </r>
       <r>    -2.7801     0.0000     0.0000 </r>
       <r>    -2.6863     0.0000     0.0000 </r>
       <r>    -2.5926     0.0000     0.0000 </r>
       <r>    -2.4988     0.0000     0.0000 </r>
       <r>    -2.4050     0.0000     0.0000 </r>
       <r>    -2.3112     0.0000     0.0000 </r>
       <r>    -2.2174     0.0000     0.0000 </r>
       <r>    -2.1236     0.0000     0.0000 </r>
       <r>    -2.0299     0.0000     0.0000 </r>
       <r>    -1.9361     0.0000     0.0000 </r>
       <r>    -1.8423     0.0000     0.0000 </r>
       <r>    -1.7485     0.0000     0.0000 </r>
       <r>    -1.6547     0.0000     0.0000 </r>
       <r>    -1.5609     0.0000     0.0000 </r>
       <r>    -1.4672     0.0000     0.0000 </r>
       <r>    -1.3734     0.0000     0.0000 </r>
       <r>    -1.2796     0.0000     0.0000 </r>
       <r>    -1.1858     0.0000     0.0000 </r>
       <r>    -1.0920     0.0000     0.0000 </r>
       <r>    -0.9982     0.0000     0.0000 </r>
       <r>    -0.9045     0.0000     0.0000 </r>
       <r>    -0.8107     0.0000     0.0000 </r>
       <r>    -0.7169     0.0000     0.0000 </r>
       <r>    -0.6231     0.0000     0.0000 </r>
       <r>    -0.5293     0.0000     0.0000 </r>
       <r>    -0.4355     0.0000     0.0000 </r>
       <r>    -0.3417     0.0000     0.0000 </r>
       <r>    -0.2480     0.0000     0.0000 </r>
       <r>    -0.1542     0.0000     0.0000 </r>
       <r>    -0.0604     0.0000     0.0000 </r>
       <r>     0.0334     0.0000     0.0000 </r>
       <r>     0.1272     0.0000     0.0000 </r>
       <r>     0.2210     0.0000     0.0000 </r>
       <r>     0.3147     0.0000     0.0000 </r>
       <r>     0.4085     0.0000     0.0000 </r>
       <r>     0.5023     0.0000     0.0000 </r>
       <r>     0.5961     0.0000     0.0000 </r>
       <r>     0.6899     0.0000     0.0000 </r>
       <r>     0.7837     0.0000     0.0000 </r>
       <r>     0.8774     0.0000     0.0000 </r>
       <r>     0.9712     0.0000     0.0000 </r>
       <r>     1.0650     0.0000     0.0000 </r>
       <r>     1.1588     0.0000     0.0000 </r>
       <r>     1.2526     0.0000     0.0000 </r>
       <r>     1.3464     0.0000     0.0000 </r>
       <r>     1.4401     0.0000     0.0000 </r>
       <r>     1.5339     0.0000     0.0000 </r>
       <r>     1.6277     0.0000     0.0000 </r>
       <r>     1.7215     0.0000     0.0000 </r>
       <r>     1.8153     0.0000     0.0000 </r>
       <r>     1.9091     0.0000     0.0000 </r>
       <r>     2.0029     0.0000     0.0000 </r>
       <r>     2.0966     0.0000     0.0000 </r>
       <r>     2.1904     0.0000     0.0000 </r>
       <r>     2.2842     0.0000     0.0000 </r>
       <r>     2.3780     0.0000     0.0000 </r>
       <r>     2.4718     0.0000     0.0000 </r>
       <r>     2.5656     0.0000     0.0000 </r>
       <r>     2.6593     0.0000     0.0000 </r>
       <r>     2.7531     0.0000     0.0000 </r>
       <r>     2.8469     0.0000     0.0000 </r>
       <r>     2.9407     0.0000     0.0000 </r>
       <r>     3.0345     0.0000     0.0000 </r>
       <r>     3.1283     0.0000     0.0000 </r>
       <r>     3.2220     0.0000     0.0000 </r>
       <r>     3.3158     0.0000     0.0000 </r>
       <r>     3.4096     0.0000     0.0000 </r>
       <r>     3.5034     0.0000     0.0000 </r>
       <r>     3.5972     0.0000     0.0000 </r>
       <r>     3.6910     0.0000     0.0000 </r>
       <r>     3.7847     0.0000     0.0000 </r>
       <r>     3.8785     0.0000     0.0000 </r>
       <r>     3.9723     0.0000     0.0000 </r>
       <r>     4.0661     0.0000     0.0000 </r>
       <r>     4.1599     0.0000     0.0000 </r>
       <r>     4.2537     0.0000     0.0000 </r>
       <r>     4.3475     0.0000     0.0000 </r>
       <r>     4.4412     0.0000     0.0000 </r>
       <r>     4.5350     0.0000     0.0000 </r>
       <r>     4.6288     0.0000     0.0000 </r>
       <r>     4.7226     0.0000     0.0000 </r>
       <r>     4.8164     0.0000     0.0000 </r>
       <r>     4.9102     0.0000     0.0000 </r>
       <r>     5.0039     0.0000     0.0000 </r>
       <r>     5.0977     0.0000     0.0000 </r>
       <r>     5.1915     0.0000     0.0000 </r>
       <r>     5.2853     0.0000     0.0000 </r>
       <r>     5.3791     0.0000     0.0000 </r>
       <r>     5.4729     0.0000     0.0000 </r>
       <r>     5.5666     0.0000     0.0000 </r>
       <r>     5.6604     0.0000     0.0000 </r>
       <r>     5.7542     0.0000     0.0000 </r>
       <r>     5.8480     0.0000     0.0000 </r>
       <r>     5.9418     0.0000     0.0000 </r>
       <r>     6.0356     0.0000     0.0000 </r>
       <r>     6.1293     0.0000     0.0000 </r>
       <r>     6.2231     0.0000     0.0000 </r>
       <r>     6.3169     0.0000     0.0000 </r>
       <r>     6.4107     0.0000     0.0000 </r>
       <r>     6.5045     0.0000     0.0000 </r>
       <r>     6.5983     0.0000     0.0000 </r>
       <r>     6.6921     0.0000     0.0000 </r>
       <r>     6.7858     0.0000     0.0000 </r>
       <r>     6.8796     0.0000     0.0000 </r>
       <r>     6.9734     0.0000     0.0000 </r>
       <r>     7.0672     0.0000     0.0000 </r>
       <r>     7.1610     0.0000     0.0000 </r>
       <r>     7.2548     0.0000     0.0000 </r>
       <r>     7.3485     0.0000     0.0000 </r>
       <r>     7.4423     0.0000     0.0000 </r>
       <r>     7.5361     0.0000     0.0000 </r>
       <r>     7.6299     0.0000     0.0000 </r>
       <r>     7.7237     0.0000     0.0000 </r>
       <r>     7.8175     0.0000     0.0000 </r>
       <r>     7.9112     0.0000     0.0000 </r>
       <r>     8.0050     0.0000     0.0000 </r>
       <r>     8.0988     0.0000     0.0000 </r>
       <r>     8.1926     0.0000     0.0000 </r>
       <r>     8.2864     0.0000     0.0000 </r>
       <r>     8.3802     0.0000     0.0000 </r>
       <r>     8.4739     0.0000     0.0000 </r>
       <r>     8.5677     0.0000     0.0000 </r>
       <r>     8.6615     0.0000     0.0000 </r>
       <r>     8.7553     0.0000     0.0000 </r>
       <r>     8.8491     0.0000     0.0000 </r>
       <r>     8.9429     0.0000     0.0000 </r>
       <r>     9.0367     0.0000     0.0000 </r>
       <r>     9.1304     0.0000     0.0000 </r>
       <r>     9.2242     0.0000     0.0000 </r>
       <r>     9.3180     0.0000     0.0000 </r>
       <r>     9.4118     0.0000     0.0000 </r>
       <r>     9.5056     0.0000     0.0000 </r>
       <r>     9.5994     0.0000     0.0000 </r>
       <r>     9.6931     0.0000     0.0000 </r>
       <r>     9.7869     0.0000     0.0000 </r>
       <r>     9.8807     0.0000     0.0000 </r>
       <r>     9.9745     0.0000     0.0000 </r>
       <r>    10.0683     0.0000     0.0000 </r>
       <r>    10.1621     0.0000     0.0000 </r>
       <r>    10.2558     0.0000     0.0000 </r>
       <r>    10.3496     0.0000     0.0000 </r>
       <r>    10.4434     0.0000     0.0000 </r>
       <r>    10.5372     0.0000     0.0000 </r>
       <r>    10.6310     0.0000     0.0000 </r>
       <r>    10.7248     0.0000     0.0000 </r>
       <r>    10.8185     0.0000     0.0000 </r>
       <r>    10.9123     0.0000     0.0000 </r>
       <r>    11.0061     0.0000     0.0000 </r>
       <r>    11.0999     0.0000     0.0000 </r>
       <r>    11.1937     0.0000     0.0000 </r>
       <r>    11.2875     0.0000     0.0000 </r>
       <r>    11.3813     0.0000     0.0000 </r>
       <r>    11.4750     0.0000     0.0000 </r>
       <r>    11.5688     0.0000     0.0000 </r>
       <r>    11.6626     0.0000     0.0000 </r>
       <r>    11.7564     0.0000     0.0000 </r>
       <r>    11.8502     0.0000     0.0000 </r>
       <r>    11.9440     0.0000     0.0000 </r>
       <r>    12.0377     0.0000     0.0000 </r>
       <r>    12.1315     0.0000     0.0000 </r>
       <r>    12.2253     0.0000     0.0000 </r>
       <r>    12.3191     0.0000     0.0000 </r>
       <r>    12.4129     0.0000     0.0000 </r>
       <r>    12.5067     0.0000     0.0000 </r>
       <r>    12.6004     0.0000     0.0000 </r>
       <r>    12.6942     0.0000     0.0000 </r>
       <r>    12.7880     0.0000     0.0000 </r>
       <r>    12.8818     0.0000     0.0000 </r>
       <r>    12.9756     0.0000     0.0000 </r>
       <r>    13.0694     0.0000     0.0000 </r>
       <r>    13.1631     0.0000     0.0000 </r>
       <r>    13.2569     0.0000     0.0000 </r>
       <r>    13.3507     0.0000     0.0000 </r>
       <r>    13.4445     0.0000     0.0000 </r>
       <r>    13.5383     0.0000     0.0000 </r>
       <r>    13.6321     0.0000     0.0000 </r>
       <r>    13.7258     0.0000     0.0000 </r>
       <r>    13.8196     0.0000     0.0000 </r>
       <r>    13.9134     0.0000     0.0000 </r>
       <r>    14.0072     0.0000     0.0000 </r>
       <r>    14.1010     0.0000     0.0000 </r>
       <r>    14.1948     0.0000     0.0000 </r>
       <r>    14.2886     0.0000     0.0000 </r>
       <r>    14.3823     0.0000     0.0000 </r>
       <r>    14.4761     0.0000     0.0000 </r>
       <r>    14.5699     0.0000     0.0000 </r>
       <r>    14.6637     0.0000     0.0000 </r>
       <r>    14.7575     0.0000     0.0000 </r>
       <r>    14.8513     0.0000     0.0000 </r>
       <r>    14.9450     0.0000     0.0000 </r>
       <r>    15.0388     0.0000     0.0000 </r>
       <r>    15.1326     0.0000     0.0000 </r>
       <r>    15.2264     0.0000     0.0000 </r>
       <r>    15.3202     0.0000     0.0000 </r>
       <r>    15.4140     0.0000     0.0000 </r>
       <r>    15.5077     0.0000     0.0000 </r>
       <r>    15.6015     0.0000     0.0000 </r>
       <r>    15.6953     0.0000     0.0000 </r>
       <r>    15.7891     0.0000     0.0000 </r>
       <r>    15.8829     0.0000     0.0000 </r>
       <r>    15.9767     0.0000     0.0000 </r>
       <r>    16.0704     0.0000     0.0000 </r>
       <r>    16.1642     0.0000     0.0000 </r>
       <r>    16.2580     0.0000     0.0000 </r>
       <r>    16.3518     0.0000     0.0000 </r>
       <r>    16.4456     0.0000     0.0000 </r>
       <r>    16.5394     0.0000     0.0000 </r>
       <r>    16.6332     0.0000     0.0000 </r>
       <r>    16.7269     0.0000     0.0000 </r>
       <r>    16.8207     0.0000     0.0000 </r>
       <r>    16.9145     0.0000     0.0000 </r>
       <r>    17.0083     0.0000     0.0000 </r>
       <r>    17.1021     0.0000     0.0000 </r>
       <r>    17.1959     0.0000     0.0000 </r>
       <r>    17.2896     0.0000     0.0000 </r>
       <r>    17.3834     0.0000     0.0000 </r>
       <r>    17.4772     0.0000     0.0000 </r>
       <r>    17.5710     0.0000     0.0000 </r>
       <r>    17.6648     0.0000     0.0000 </r>
       <r>    17.7586     0.0000     0.0000 </r>
       <r>    17.8523     0.0000     0.0000 </r>
       <r>    17.9461     0.0000     0.0000 </r>
       <r>    18.0399     0.0000     0.0000 </r>
       <r>    18.1337     0.0000     0.0000 </r>
       <r>    18.2275     0.0000     0.0000 </r>
       <r>    18.3213     0.0000     0.0000 </r>
       <r>    18.4150     0.0000     0.0000 </r>
       <r>    18.5088     0.0000     0.0000 </r>
      </set>
     </set>
    </array>
   </total>
  </dos>
 </calculation>
 <structure name="finalpos" >
  <crystal>
   <varray name="basis" >
    <v>       0.00000000       3.02920000       3.02920000 </v>
    <v>       3.02920000       0.00000000       3.02920000 </v>
    <v>       3.02920000       3.02920000       0.00000000 </v>
   </varray>
   <i name="volume">     55.59219731 </i>
   <varray name="rec_basis" >
    <v>      -0.16506008       0.16506008       0.16506008 </v>
    <v>       0.16506008      -0.16506008       0.16506008 </v>
    <v>       0.16506008       0.16506008      -0.16506008 </v>
   </varray>
  </crystal>
  <varray name="positions" >
   <v>       0.00000000       0.00000000       0.00000000 </v>
   <v>       0.75000000       0.75000000       0.75000000 </v>
  </varray>
 </structure>
</modeling>
