<?xml version="1.0" encoding="ISO-8859-1"?>
<modeling>
 <generator>
  <i name="program" type="string">vasp </i>
  <i name="version" type="string">5.4.4.18Apr17-6-g9f103f2a35  </i>
  <i name="subversion" type="string">(build Nov 08 2017 12:56:59) complex            parallel </i>
  <i name="platform" type="string">LinuxIFC </i>
  <i name="date" type="string">2020 06 22 </i>
  <i name="time" type="string">23:34:06 </i>
 </generator>
 <incar>
  <i type="string" name="PREC">n</i>
  <i type="string" name="ALGO"> D</i>
  <i type="logical" name="LSORBIT"> T  </i>
  <v name="SAXIS">      0.00000000      0.00000000      1.00000000</v>
  <i type="int" name="ISPIN">     2</i>
  <i type="int" name="ICHARG">    11</i>
  <i name="EDIFF">      0.00010000</i>
  <i name="ENCUT">    300.00000000</i>
  <v name="MAGMOM">      0.00000000      0.00000000      0.00000000      0.00000000      0.00000000      0.00000000</v>
  <i name="SIGMA">      0.05000000</i>
  <i type="int" name="LMAXMIX">     4</i>
  <i type="logical" name="LWAVE"> F  </i>
  <i type="logical" name="LCHARG"> F  </i>
  <v type="int" name="KPOINT_BSE">    -1     0     0     0</v>
  <i type="string" name="GGA"> PE</i>
  <i type="logical" name="LDAU"> T  </i>
  <v type="int" name="LDAUL">     1     1</v>
  <v name="LDAUU">      2.31100000    -10.00000000</v>
  <v name="LDAUJ">      0.00000000      0.00000000</v>
 </incar>
 <structure name="primitive_cell" >
  <crystal>
   <varray name="basis" >
    <v>       0.00000000       3.02920000       3.02920000 </v>
    <v>       3.02920000       0.00000000       3.02920000 </v>
    <v>       3.02920000       3.02920000       0.00000000 </v>
   </varray>
   <i name="volume">     55.59219731 </i>
   <varray name="rec_basis" >
    <v>      -0.16506008       0.16506008       0.16506008 </v>
    <v>       0.16506008      -0.16506008       0.16506008 </v>
    <v>       0.16506008       0.16506008      -0.16506008 </v>
   </varray>
  </crystal>
  <varray name="positions" >
   <v>       0.00000000       0.00000000       0.00000000 </v>
   <v>       0.25000000       0.25000000       0.25000000 </v>
  </varray>
 </structure>
 <varray name="primitive_index" >
  <v type="int" >        1 </v>
  <v type="int" >        2 </v>
 </varray>
 <kpoints>
  <generation param="listgenerated">
   <i name="divisions" type="int">      20 </i>
   <v>       0.00000000       0.00000000       0.00000000 </v>
   <v>       0.50000000       0.00000000       0.50000000 </v>
   <v>       0.50000000       0.25000000       0.75000000 </v>
   <v>       0.50000000       0.50000000       0.50000000 </v>
   <v>       0.00000000       0.00000000       0.00000000 </v>
   <v>       0.37500000       0.37500000       0.75000000 </v>
  </generation>
  <varray name="kpointlist" >
   <v>       0.00000000       0.00000000       0.00000000 </v>
   <v>       0.02631579       0.00000000       0.02631579 </v>
   <v>       0.05263158       0.00000000       0.05263158 </v>
   <v>       0.07894737       0.00000000       0.07894737 </v>
   <v>       0.10526316       0.00000000       0.10526316 </v>
   <v>       0.13157895       0.00000000       0.13157895 </v>
   <v>       0.15789474       0.00000000       0.15789474 </v>
   <v>       0.18421053       0.00000000       0.18421053 </v>
   <v>       0.21052632       0.00000000       0.21052632 </v>
   <v>       0.23684211       0.00000000       0.23684211 </v>
   <v>       0.26315789       0.00000000       0.26315789 </v>
   <v>       0.28947368       0.00000000       0.28947368 </v>
   <v>       0.31578947       0.00000000       0.31578947 </v>
   <v>       0.34210526       0.00000000       0.34210526 </v>
   <v>       0.36842105       0.00000000       0.36842105 </v>
   <v>       0.39473684       0.00000000       0.39473684 </v>
   <v>       0.42105263       0.00000000       0.42105263 </v>
   <v>       0.44736842       0.00000000       0.44736842 </v>
   <v>       0.47368421       0.00000000       0.47368421 </v>
   <v>       0.50000000       0.00000000       0.50000000 </v>
   <v>       0.50000000       0.00000000       0.50000000 </v>
   <v>       0.50000000       0.01315789       0.51315789 </v>
   <v>       0.50000000       0.02631579       0.52631579 </v>
   <v>       0.50000000       0.03947368       0.53947368 </v>
   <v>       0.50000000       0.05263158       0.55263158 </v>
   <v>       0.50000000       0.06578947       0.56578947 </v>
   <v>       0.50000000       0.07894737       0.57894737 </v>
   <v>       0.50000000       0.09210526       0.59210526 </v>
   <v>       0.50000000       0.10526316       0.60526316 </v>
   <v>       0.50000000       0.11842105       0.61842105 </v>
   <v>       0.50000000       0.13157895       0.63157895 </v>
   <v>       0.50000000       0.14473684       0.64473684 </v>
   <v>       0.50000000       0.15789474       0.65789474 </v>
   <v>       0.50000000       0.17105263       0.67105263 </v>
   <v>       0.50000000       0.18421053       0.68421053 </v>
   <v>       0.50000000       0.19736842       0.69736842 </v>
   <v>       0.50000000       0.21052632       0.71052632 </v>
   <v>       0.50000000       0.22368421       0.72368421 </v>
   <v>       0.50000000       0.23684211       0.73684211 </v>
   <v>       0.50000000       0.25000000       0.75000000 </v>
   <v>       0.50000000       0.25000000       0.75000000 </v>
   <v>       0.50000000       0.26315789       0.73684211 </v>
   <v>       0.50000000       0.27631579       0.72368421 </v>
   <v>       0.50000000       0.28947368       0.71052632 </v>
   <v>       0.50000000       0.30263158       0.69736842 </v>
   <v>       0.50000000       0.31578947       0.68421053 </v>
   <v>       0.50000000       0.32894737       0.67105263 </v>
   <v>       0.50000000       0.34210526       0.65789474 </v>
   <v>       0.50000000       0.35526316       0.64473684 </v>
   <v>       0.50000000       0.36842105       0.63157895 </v>
   <v>       0.50000000       0.38157895       0.61842105 </v>
   <v>       0.50000000       0.39473684       0.60526316 </v>
   <v>       0.50000000       0.40789474       0.59210526 </v>
   <v>       0.50000000       0.42105263       0.57894737 </v>
   <v>       0.50000000       0.43421053       0.56578947 </v>
   <v>       0.50000000       0.44736842       0.55263158 </v>
   <v>       0.50000000       0.46052632       0.53947368 </v>
   <v>       0.50000000       0.47368421       0.52631579 </v>
   <v>       0.50000000       0.48684211       0.51315789 </v>
   <v>       0.50000000       0.50000000       0.50000000 </v>
   <v>       0.50000000       0.50000000       0.50000000 </v>
   <v>       0.47368421       0.47368421       0.47368421 </v>
   <v>       0.44736842       0.44736842       0.44736842 </v>
   <v>       0.42105263       0.42105263       0.42105263 </v>
   <v>       0.39473684       0.39473684       0.39473684 </v>
   <v>       0.36842105       0.36842105       0.36842105 </v>
   <v>       0.34210526       0.34210526       0.34210526 </v>
   <v>       0.31578947       0.31578947       0.31578947 </v>
   <v>       0.28947368       0.28947368       0.28947368 </v>
   <v>       0.26315789       0.26315789       0.26315789 </v>
   <v>       0.23684211       0.23684211       0.23684211 </v>
   <v>       0.21052632       0.21052632       0.21052632 </v>
   <v>       0.18421053       0.18421053       0.18421053 </v>
   <v>       0.15789474       0.15789474       0.15789474 </v>
   <v>       0.13157895       0.13157895       0.13157895 </v>
   <v>       0.10526316       0.10526316       0.10526316 </v>
   <v>       0.07894737       0.07894737       0.07894737 </v>
   <v>       0.05263158       0.05263158       0.05263158 </v>
   <v>       0.02631579       0.02631579       0.02631579 </v>
   <v>       0.00000000       0.00000000       0.00000000 </v>
   <v>       0.00000000       0.00000000       0.00000000 </v>
   <v>       0.01973684       0.01973684       0.03947368 </v>
   <v>       0.03947368       0.03947368       0.07894737 </v>
   <v>       0.05921053       0.05921053       0.11842105 </v>
   <v>       0.07894737       0.07894737       0.15789474 </v>
   <v>       0.09868421       0.09868421       0.19736842 </v>
   <v>       0.11842105       0.11842105       0.23684211 </v>
   <v>       0.13815789       0.13815789       0.27631579 </v>
   <v>       0.15789474       0.15789474       0.31578947 </v>
   <v>       0.17763158       0.17763158       0.35526316 </v>
   <v>       0.19736842       0.19736842       0.39473684 </v>
   <v>       0.21710526       0.21710526       0.43421053 </v>
   <v>       0.23684211       0.23684211       0.47368421 </v>
   <v>       0.25657895       0.25657895       0.51315789 </v>
   <v>       0.27631579       0.27631579       0.55263158 </v>
   <v>       0.29605263       0.29605263       0.59210526 </v>
   <v>       0.31578947       0.31578947       0.63157895 </v>
   <v>       0.33552632       0.33552632       0.67105263 </v>
   <v>       0.35526316       0.35526316       0.71052632 </v>
   <v>       0.37500000       0.37500000       0.75000000 </v>
  </varray>
  <varray name="weights" >
   <v>       0.01000000 </v>
   <v>       0.01000000 </v>
   <v>       0.01000000 </v>
   <v>       0.01000000 </v>
   <v>       0.01000000 </v>
   <v>       0.01000000 </v>
   <v>       0.01000000 </v>
   <v>       0.01000000 </v>
   <v>       0.01000000 </v>
   <v>       0.01000000 </v>
   <v>       0.01000000 </v>
   <v>       0.01000000 </v>
   <v>       0.01000000 </v>
   <v>       0.01000000 </v>
   <v>       0.01000000 </v>
   <v>       0.01000000 </v>
   <v>       0.01000000 </v>
   <v>       0.01000000 </v>
   <v>       0.01000000 </v>
   <v>       0.01000000 </v>
   <v>       0.01000000 </v>
   <v>       0.01000000 </v>
   <v>       0.01000000 </v>
   <v>       0.01000000 </v>
   <v>       0.01000000 </v>
   <v>       0.01000000 </v>
   <v>       0.01000000 </v>
   <v>       0.01000000 </v>
   <v>       0.01000000 </v>
   <v>       0.01000000 </v>
   <v>       0.01000000 </v>
   <v>       0.01000000 </v>
   <v>       0.01000000 </v>
   <v>       0.01000000 </v>
   <v>       0.01000000 </v>
   <v>       0.01000000 </v>
   <v>       0.01000000 </v>
   <v>       0.01000000 </v>
   <v>       0.01000000 </v>
   <v>       0.01000000 </v>
   <v>       0.01000000 </v>
   <v>       0.01000000 </v>
   <v>       0.01000000 </v>
   <v>       0.01000000 </v>
   <v>       0.01000000 </v>
   <v>       0.01000000 </v>
   <v>       0.01000000 </v>
   <v>       0.01000000 </v>
   <v>       0.01000000 </v>
   <v>       0.01000000 </v>
   <v>       0.01000000 </v>
   <v>       0.01000000 </v>
   <v>       0.01000000 </v>
   <v>       0.01000000 </v>
   <v>       0.01000000 </v>
   <v>       0.01000000 </v>
   <v>       0.01000000 </v>
   <v>       0.01000000 </v>
   <v>       0.01000000 </v>
   <v>       0.01000000 </v>
   <v>       0.01000000 </v>
   <v>       0.01000000 </v>
   <v>       0.01000000 </v>
   <v>       0.01000000 </v>
   <v>       0.01000000 </v>
   <v>       0.01000000 </v>
   <v>       0.01000000 </v>
   <v>       0.01000000 </v>
   <v>       0.01000000 </v>
   <v>       0.01000000 </v>
   <v>       0.01000000 </v>
   <v>       0.01000000 </v>
   <v>       0.01000000 </v>
   <v>       0.01000000 </v>
   <v>       0.01000000 </v>
   <v>       0.01000000 </v>
   <v>       0.01000000 </v>
   <v>       0.01000000 </v>
   <v>       0.01000000 </v>
   <v>       0.01000000 </v>
   <v>       0.01000000 </v>
   <v>       0.01000000 </v>
   <v>       0.01000000 </v>
   <v>       0.01000000 </v>
   <v>       0.01000000 </v>
   <v>       0.01000000 </v>
   <v>       0.01000000 </v>
   <v>       0.01000000 </v>
   <v>       0.01000000 </v>
   <v>       0.01000000 </v>
   <v>       0.01000000 </v>
   <v>       0.01000000 </v>
   <v>       0.01000000 </v>
   <v>       0.01000000 </v>
   <v>       0.01000000 </v>
   <v>       0.01000000 </v>
   <v>       0.01000000 </v>
   <v>       0.01000000 </v>
   <v>       0.01000000 </v>
   <v>       0.01000000 </v>
  </varray>
 </kpoints>
 <parameters>
  <separator name="general" >
   <i type="string" name="SYSTEM">unknown system</i>
   <i type="logical" name="LCOMPAT"> F  </i>
  </separator>
  <separator name="electronic" >
   <i type="string" name="PREC">n</i>
   <i name="ENMAX">    300.00000000</i>
   <i name="ENAUG">    462.75800000</i>
   <i name="EDIFF">      0.00010000</i>
   <i type="int" name="IALGO">    53</i>
   <i type="int" name="IWAVPR">    10</i>
   <i type="int" name="NBANDS">    56</i>
   <i name="NELECT">      8.00000000</i>
   <i type="int" name="TURBO">     0</i>
   <i type="int" name="IRESTART">     0</i>
   <i type="int" name="NREBOOT">     0</i>
   <i type="int" name="NMIN">     0</i>
   <i name="EREF">      0.00000000</i>
   <separator name="electronic smearing" >
    <i type="int" name="ISMEAR">     1</i>
    <i name="SIGMA">      0.05000000</i>
    <i name="KSPACING">      0.50000000</i>
    <i type="logical" name="KGAMMA"> T  </i>
   </separator>
   <separator name="electronic projectors" >
    <i type="logical" name="LREAL"> F  </i>
    <v name="ROPT">      0.00000000      0.00000000</v>
    <i type="int" name="LMAXPAW">  -100</i>
    <i type="int" name="LMAXMIX">     4</i>
    <i type="logical" name="NLSPLINE"> F  </i>
   </separator>
   <separator name="electronic startup" >
    <i type="int" name="ISTART">     1</i>
    <i type="int" name="ICHARG">    11</i>
    <i type="int" name="INIWAV">     1</i>
   </separator>
   <separator name="electronic spin" >
    <i type="int" name="ISPIN">     1</i>
    <i type="logical" name="LNONCOLLINEAR"> T  </i>
    <v name="MAGMOM">      0.00000000      0.00000000      0.00000000      0.00000000      0.00000000      0.00000000</v>
    <i name="NUPDOWN">     -1.00000000</i>
    <i type="logical" name="LSORBIT"> T  </i>
    <v name="SAXIS">      0.00000000      0.00000000      1.00000000</v>
    <i type="logical" name="LSPIRAL"> F  </i>
    <v name="QSPIRAL">      0.00000000      0.00000000      0.00000000</v>
    <i type="logical" name="LZEROZ"> F  </i>
   </separator>
   <separator name="electronic exchange-correlation" >
    <i type="logical" name="LASPH"> F  </i>
    <i type="logical" name="LMETAGGA"> F  </i>
   </separator>
   <separator name="electronic convergence" >
    <i type="int" name="NELM">    60</i>
    <i type="int" name="NELMDL">     0</i>
    <i type="int" name="NELMIN">     2</i>
    <i name="ENINI">    300.00000000</i>
    <separator name="electronic convergence detail" >
     <i type="logical" name="LDIAG"> T  </i>
     <i type="logical" name="LSUBROT"> F  </i>
     <i name="WEIMIN">      0.00000000</i>
     <i name="EBREAK">      0.00000045</i>
     <i name="DEPER">      0.30000000</i>
     <i type="int" name="NRMM">     4</i>
     <i name="TIME">      0.40000000</i>
    </separator>
   </separator>
   <separator name="electronic mixer" >
    <i name="AMIX">      0.40000000</i>
    <i name="BMIX">      1.00000000</i>
    <i name="AMIN">      0.10000000</i>
    <i name="AMIX_MAG">      1.60000000</i>
    <i name="BMIX_MAG">      1.00000000</i>
    <separator name="electronic mixer details" >
     <i type="int" name="IMIX">     4</i>
     <i type="logical" name="MIXFIRST"> F  </i>
     <i type="int" name="MAXMIX">   -45</i>
     <i name="WC">    100.00000000</i>
     <i type="int" name="INIMIX">     1</i>
     <i type="int" name="MIXPRE">     1</i>
     <i type="int" name="MREMOVE">     5</i>
    </separator>
   </separator>
   <separator name="electronic dipolcorrection" >
    <i type="logical" name="LDIPOL"> F  </i>
    <i type="logical" name="LMONO"> F  </i>
    <i type="int" name="IDIPOL">     0</i>
    <i name="EPSILON">      1.00000000</i>
    <v name="DIPOL">   -100.00000000   -100.00000000   -100.00000000</v>
    <i name="EFIELD">      0.00000000</i>
   </separator>
  </separator>
  <separator name="grids" >
   <i type="int" name="NGX">    18</i>
   <i type="int" name="NGY">    18</i>
   <i type="int" name="NGZ">    18</i>
   <i type="int" name="NGXF">    36</i>
   <i type="int" name="NGYF">    36</i>
   <i type="int" name="NGZF">    36</i>
   <i type="logical" name="ADDGRID"> F  </i>
  </separator>
  <separator name="ionic" >
   <i type="int" name="NSW">     0</i>
   <i type="int" name="IBRION">    -1</i>
   <i type="int" name="MDALGO">     0</i>
   <i type="int" name="ISIF">     2</i>
   <i name="PSTRESS">      0.00000000</i>
   <i name="EDIFFG">      0.00100000</i>
   <i type="int" name="NFREE">     0</i>
   <i name="POTIM">      0.50000000</i>
   <i name="SMASS">     -3.00000000</i>
   <i name="SCALEE">      1.00000000</i>
  </separator>
  <separator name="ionic md" >
   <i name="TEBEG">      0.00010000</i>
   <i name="TEEND">      0.00010000</i>
   <i type="int" name="NBLOCK">     1</i>
   <i type="int" name="KBLOCK">     1</i>
   <i type="int" name="NPACO">   256</i>
   <i name="APACO">     16.00000000</i>
  </separator>
  <separator name="symmetry" >
   <i type="int" name="ISYM">     2</i>
   <i name="SYMPREC">      0.00001000</i>
  </separator>
  <separator name="dos" >
   <i type="int" name="LORBIT">     0</i>
   <v name="RWIGS">     -1.00000000     -1.00000000</v>
   <i type="int" name="NEDOS">   301</i>
   <i name="EMIN">     10.00000000</i>
   <i name="EMAX">    -10.00000000</i>
   <i name="EFERMI">      0.00000000</i>
  </separator>
  <separator name="writing" >
   <i type="int" name="NWRITE">     2</i>
   <i type="logical" name="LWAVE"> F  </i>
   <i type="logical" name="LDOWNSAMPLE"> F  </i>
   <i type="logical" name="LCHARG"> F  </i>
   <i type="logical" name="LPARD"> F  </i>
   <i type="logical" name="LVTOT"> F  </i>
   <i type="logical" name="LVHAR"> F  </i>
   <i type="logical" name="LELF"> F  </i>
   <i type="logical" name="LOPTICS"> F  </i>
   <v name="STM">      0.00000000      0.00000000      0.00000000      0.00000000      0.00000000      0.00000000      0.00000000</v>
  </separator>
  <separator name="performance" >
   <i type="int" name="NPAR">    56</i>
   <i type="int" name="NSIM">     4</i>
   <i type="int" name="NBLK">    -1</i>
   <i type="logical" name="LPLANE"> T  </i>
   <i type="logical" name="LSCALAPACK"> T  </i>
   <i type="logical" name="LSCAAWARE"> T  </i>
   <i type="logical" name="LSCALU"> F  </i>
   <i type="logical" name="LASYNC"> F  </i>
   <i type="logical" name="LORBITALREAL"> F  </i>
  </separator>
  <separator name="miscellaneous" >
   <i type="int" name="IDIOT">     3</i>
   <i type="int" name="ISPECIAL">     0</i>
   <i type="logical" name="LMUSIC"> F  </i>
   <v name="POMASS">    114.82000000     74.92200000</v>
   <v name="DARWINR">      0.00000000      0.00000000</v>
   <v name="DARWINV">      1.00000000      1.00000000</v>
   <i type="logical" name="LCORR"> T  </i>
  </separator>
  <i type="logical" name="GGA_COMPAT"> T  </i>
  <i type="logical" name="LBERRY"> F  </i>
  <i type="int" name="ICORELEVEL">     0</i>
  <i type="logical" name="LDAU"> T  </i>
  <v type="int" name="LDAUTYPE">     2</v>
  <v type="int" name="LDAUL">     1</v>
  <v name="LDAUU">      2.31100000</v>
  <v name="LDAUJ">      0.00000000</v>
  <i type="int" name="LDAUPRINT">     0</i>
  <i type="int" name="I_CONSTRAINED_M">     0</i>
  <separator name="electronic exchange-correlation" >
   <i type="string" name="GGA">PE</i>
   <i type="int" name="VOSKOWN">     0</i>
   <i type="logical" name="LHFCALC"> F  </i>
   <i type="string" name="PRECFOCK"></i>
   <i type="logical" name="LSYMGRAD"> F  </i>
   <i type="logical" name="LHFONE"> F  </i>
   <i type="logical" name="LRHFCALC"> F  </i>
   <i type="logical" name="LTHOMAS"> F  </i>
   <i type="logical" name="LMODELHF"> F  </i>
   <i name="ENCUT4O">     -1.00000000</i>
   <i type="int" name="EXXOEP">     0</i>
   <i type="int" name="FOURORBIT">     0</i>
   <i name="AEXX">      0.00000000</i>
   <i name="HFALPHA">      0.00000000</i>
   <i name="MCALPHA">      0.00000000</i>
   <i name="ALDAX">      1.00000000</i>
   <i name="AGGAX">      1.00000000</i>
   <i name="ALDAC">      1.00000000</i>
   <i name="AGGAC">      1.00000000</i>
   <i type="int" name="NKREDX">     1</i>
   <i type="int" name="NKREDY">     1</i>
   <i type="int" name="NKREDZ">     1</i>
   <i type="logical" name="SHIFTRED"> F  </i>
   <i type="logical" name="ODDONLY"> F  </i>
   <i type="logical" name="EVENONLY"> F  </i>
   <i type="int" name="LMAXFOCK">     0</i>
   <i type="int" name="NMAXFOCKAE">     0</i>
   <i type="logical" name="LFOCKAEDFT"> F  </i>
   <i name="HFSCREEN">      0.00000000</i>
   <i name="HFSCREENC">      0.00000000</i>
   <i type="int" name="NBANDSGWLOW">     0</i>
  </separator>
  <separator name="vdW DFT" >
   <i type="logical" name="LUSE_VDW"> F  </i>
   <i name="Zab_VDW">     -0.84910000</i>
   <i name="PARAM1">      0.12340000</i>
   <i name="PARAM2">      1.00000000</i>
   <i name="PARAM3">      0.00000000</i>
  </separator>
  <separator name="model GW" >
   <i type="int" name="MODEL_GW">     0</i>
   <i name="MODEL_EPS0">     16.67765919</i>
   <i name="MODEL_ALPHA">      1.00000000</i>
  </separator>
  <separator name="linear response parameters" >
   <i type="logical" name="LEPSILON"> F  </i>
   <i type="logical" name="LRPA"> F  </i>
   <i type="logical" name="LNABLA"> F  </i>
   <i type="logical" name="LVEL"> F  </i>
   <i type="int" name="KINTER">     0</i>
   <i name="CSHIFT">      0.10000000</i>
   <i name="OMEGAMAX">     -1.00000000</i>
   <i name="DEG_THRESHOLD">      0.00200000</i>
   <i name="RTIME">     -0.10000000</i>
   <i name="WPLASMAI">      0.00000000</i>
   <v name="DFIELD">      0.00000000      0.00000000      0.00000000</v>
   <v name="WPLASMA">      0.00000000      0.00000000      0.00000000      0.00000000      0.00000000      0.00000000      0.00000000      0.00000000      0.00000000</v>
  </separator>
  <separator name="orbital magnetization" >
   <i type="logical" name="NUCIND"> F  </i>
   <v name="MAGPOS">      0.00000000      0.00000000      0.00000000</v>
   <i type="logical" name="LNICSALL"> T  </i>
   <i type="logical" name="ORBITALMAG"> F  </i>
   <i type="logical" name="LMAGBLOCH"> F  </i>
   <i type="logical" name="LCHIMAG"> F  </i>
   <i type="logical" name="LGAUGE"> T  </i>
   <i type="int" name="MAGATOM">     0</i>
   <v name="MAGDIPOL">      0.00000000      0.00000000      0.00000000</v>
   <v name="AVECCONST">      0.00000000      0.00000000      0.00000000</v>
  </separator>
  <separator name="response functions" >
   <i type="logical" name="LADDER"> F  </i>
   <i type="logical" name="LRPAFORCE"> F  </i>
   <i type="logical" name="LFXC"> F  </i>
   <i type="logical" name="LHARTREE"> T  </i>
   <i type="int" name="IBSE">     0</i>
   <v type="int" name="KPOINT">    -1     0     0     0</v>
   <i type="logical" name="LTCTE"> F  </i>
   <i type="logical" name="LTETE"> F  </i>
   <i type="logical" name="LTRIPLET"> F  </i>
   <i type="logical" name="LFXCEPS"> F  </i>
   <i type="logical" name="LFXHEG"> F  </i>
   <i type="int" name="NATURALO">     2</i>
   <i type="logical" name="L2ORDER"> F  </i>
   <i type="logical" name="LMP2LT"> F  </i>
   <i type="logical" name="LUSEW"> F  </i>
   <i name="ENCUTGW">     -2.00000000</i>
   <i name="ENCUTGWSOFT">     -2.00000000</i>
   <i name="ENCUTLF">     -1.00000000</i>
   <i type="int" name="LMAXMP2">    -1</i>
   <i name="SCISSOR">      0.00000000</i>
   <i type="int" name="NOMEGA">     0</i>
   <i type="int" name="NOMEGAR">     0</i>
   <i type="int" name="NBANDSGW">    -1</i>
   <i type="int" name="NBANDSO">    -1</i>
   <i type="int" name="NBANDSV">    -1</i>
   <i type="int" name="NELM">     1</i>
   <i type="int" name="NELMHF">     1</i>
   <i type="int" name="DIM">     3</i>
   <i type="int" name="ANTIRES">     0</i>
   <i name="OMEGAMAX">    -30.00000000</i>
   <i name="OMEGAMIN">    -30.00000000</i>
   <i name="OMEGATL">   -200.00000000</i>
   <i type="int" name="OMEGAGRID">   140</i>
   <i name="CSHIFT">     -0.10000000</i>
   <i type="logical" name="SELFENERGY"> F  </i>
   <i type="logical" name="LSPECTRAL"> F  </i>
   <i type="logical" name="LSPECTRALGW"> F  </i>
   <i type="logical" name="LSINGLES"> F  </i>
   <i type="logical" name="LFERMIGW"> F  </i>
   <i type="logical" name="ODDONLYGW"> F  </i>
   <i type="logical" name="EVENONLYGW"> F  </i>
   <i type="int" name="NKREDLFX">     1</i>
   <i type="int" name="NKREDLFY">     1</i>
   <i type="int" name="NKREDLFZ">     1</i>
   <i type="int" name="MAXMEM">  2800</i>
   <i type="int" name="TELESCOPE">     0</i>
   <i type="int" name="TAUPAR">     1</i>
   <i type="int" name="OMEGAPAR">    -1</i>
   <i name="LAMBDA">      1.00000000</i>
  </separator>
  <separator name="External order field" >
   <i name="OFIELD_KAPPA">      0.00000000</i>
   <v name="OFIELD_K">      0.00000000      0.00000000      0.00000000</v>
   <i name="OFIELD_Q6_NEAR">      0.00000000</i>
   <i name="OFIELD_Q6_FAR">      0.00000000</i>
   <i name="OFIELD_A">      0.00000000</i>
  </separator>
 </parameters>
 <atominfo>
  <atoms>       2 </atoms>
  <types>       2 </types>
  <array name="atoms" >
   <dimension dim="1">ion</dimension>
   <field type="string">element</field>
   <field type="int">atomtype</field>
   <set>
    <rc><c>In</c><c>   1</c></rc>
    <rc><c>As</c><c>   2</c></rc>
   </set>
  </array>
  <array name="atomtypes" >
   <dimension dim="1">type</dimension>
   <field type="int">atomspertype</field>
   <field type="string">element</field>
   <field>mass</field>
   <field>valence</field>
   <field type="string">pseudopotential</field>
   <set>
    <rc><c>   1</c><c>In</c><c>    114.82000000</c><c>      3.00000000</c><c>  PAW_PBE In 08Apr2002                  </c></rc>
    <rc><c>   1</c><c>As</c><c>     74.92200000</c><c>      5.00000000</c><c>  PAW_PBE As 22Sep2009                  </c></rc>
   </set>
  </array>
 </atominfo>
 <structure name="initialpos" >
  <crystal>
   <varray name="basis" >
    <v>       0.00000000       3.02920000       3.02920000 </v>
    <v>       3.02920000       0.00000000       3.02920000 </v>
    <v>       3.02920000       3.02920000       0.00000000 </v>
   </varray>
   <i name="volume">     55.59219731 </i>
   <varray name="rec_basis" >
    <v>      -0.16506008       0.16506008       0.16506008 </v>
    <v>       0.16506008      -0.16506008       0.16506008 </v>
    <v>       0.16506008       0.16506008      -0.16506008 </v>
   </varray>
  </crystal>
  <varray name="positions" >
   <v>       0.00000000       0.00000000       0.00000000 </v>
   <v>       0.25000000       0.25000000       0.25000000 </v>
  </varray>
 </structure>
 <calculation>
  <scstep>
   <time name="total">    1.11    1.13</time>
   <energy>
    <i name="alphaZ">      6.67624893 </i>
    <i name="ewald">   -213.84743004 </i>
    <i name="hartreedc">    -28.14547200 </i>
    <i name="XCdc">    -66.61381825 </i>
    <i name="pawpsdc">    530.34016220 </i>
    <i name="pawaedc">   -452.74171738 </i>
    <i name="eentropy">      0.00003124 </i>
    <i name="bandstr">     52.15181631 </i>
    <i name="atom">    223.97520926 </i>
    <i name="e_fr_energy">     51.79505701 </i>
    <i name="e_wo_entrp">     51.79502577 </i>
    <i name="e_0_energy">     51.79504660 </i>
   </energy>
  </scstep>
  <scstep>
   <time name="total">    1.08    1.09</time>
   <energy>
    <i name="e_fr_energy">     39.10227145 </i>
    <i name="e_wo_entrp">     39.10223038 </i>
    <i name="e_0_energy">     39.10225776 </i>
   </energy>
  </scstep>
  <scstep>
   <time name="total">    1.07    1.09</time>
   <energy>
    <i name="e_fr_energy">     22.65991273 </i>
    <i name="e_wo_entrp">     22.66007924 </i>
    <i name="e_0_energy">     22.65996823 </i>
   </energy>
  </scstep>
  <scstep>
   <time name="total">    1.07    1.08</time>
   <energy>
    <i name="e_fr_energy">      5.56734616 </i>
    <i name="e_wo_entrp">      5.56730610 </i>
    <i name="e_0_energy">      5.56733281 </i>
   </energy>
  </scstep>
  <scstep>
   <time name="total">    1.08    1.09</time>
   <energy>
    <i name="e_fr_energy">     -2.81775369 </i>
    <i name="e_wo_entrp">     -2.81757757 </i>
    <i name="e_0_energy">     -2.81769498 </i>
   </energy>
  </scstep>
  <scstep>
   <time name="total">    1.07    1.09</time>
   <energy>
    <i name="e_fr_energy">     -7.43381119 </i>
    <i name="e_wo_entrp">     -7.43368314 </i>
    <i name="e_0_energy">     -7.43376850 </i>
   </energy>
  </scstep>
  <scstep>
   <time name="total">    1.07    1.08</time>
   <energy>
    <i name="e_fr_energy">     -9.35937201 </i>
    <i name="e_wo_entrp">     -9.35920568 </i>
    <i name="e_0_energy">     -9.35931657 </i>
   </energy>
  </scstep>
  <scstep>
   <time name="total">    1.06    1.08</time>
   <energy>
    <i name="e_fr_energy">    -10.15864015 </i>
    <i name="e_wo_entrp">    -10.15840570 </i>
    <i name="e_0_energy">    -10.15856200 </i>
   </energy>
  </scstep>
  <scstep>
   <time name="total">    1.06    1.08</time>
   <energy>
    <i name="e_fr_energy">    -10.52009526 </i>
    <i name="e_wo_entrp">    -10.52033492 </i>
    <i name="e_0_energy">    -10.52017515 </i>
   </energy>
  </scstep>
  <scstep>
   <time name="total">    1.08    1.09</time>
   <energy>
    <i name="e_fr_energy">    -10.67984728 </i>
    <i name="e_wo_entrp">    -10.68008596 </i>
    <i name="e_0_energy">    -10.67992684 </i>
   </energy>
  </scstep>
  <scstep>
   <time name="total">    1.07    1.09</time>
   <energy>
    <i name="e_fr_energy">    -10.74381255 </i>
    <i name="e_wo_entrp">    -10.74410180 </i>
    <i name="e_0_energy">    -10.74390897 </i>
   </energy>
  </scstep>
  <scstep>
   <time name="total">    1.07    1.08</time>
   <energy>
    <i name="e_fr_energy">    -10.76873713 </i>
    <i name="e_wo_entrp">    -10.76906441 </i>
    <i name="e_0_energy">    -10.76884622 </i>
   </energy>
  </scstep>
  <scstep>
   <time name="total">    1.07    1.08</time>
   <energy>
    <i name="e_fr_energy">    -10.77793490 </i>
    <i name="e_wo_entrp">    -10.77828780 </i>
    <i name="e_0_energy">    -10.77805254 </i>
   </energy>
  </scstep>
  <scstep>
   <time name="total">    1.07    1.08</time>
   <energy>
    <i name="e_fr_energy">    -10.78108973 </i>
    <i name="e_wo_entrp">    -10.78144023 </i>
    <i name="e_0_energy">    -10.78120656 </i>
   </energy>
  </scstep>
  <scstep>
   <time name="total">    1.07    1.08</time>
   <energy>
    <i name="e_fr_energy">    -10.78211290 </i>
    <i name="e_wo_entrp">    -10.78245804 </i>
    <i name="e_0_energy">    -10.78222795 </i>
   </energy>
  </scstep>
  <scstep>
   <time name="total">    1.07    1.08</time>
   <energy>
    <i name="e_fr_energy">    -10.78242257 </i>
    <i name="e_wo_entrp">    -10.78276510 </i>
    <i name="e_0_energy">    -10.78253675 </i>
   </energy>
  </scstep>
  <scstep>
   <time name="total">    1.77    1.81</time>
   <energy>
    <i name="alphaZ">      6.67624893 </i>
    <i name="ewald">   -213.84743004 </i>
    <i name="hartreedc">    -28.14547200 </i>
    <i name="XCdc">    -66.61381825 </i>
    <i name="pawpsdc">    530.34016220 </i>
    <i name="pawaedc">   -452.74171738 </i>
    <i name="eentropy">      0.00034154 </i>
    <i name="bandstr">    -10.42603333 </i>
    <i name="atom">    223.97520926 </i>
    <i name="e_fr_energy">    -10.78250809 </i>
    <i name="e_wo_entrp">    -10.78284963 </i>
    <i name="e_0_energy">    -10.78262194 </i>
   </energy>
  </scstep>
  <structure>
   <crystal>
    <varray name="basis" >
     <v>       0.00000000       3.02920000       3.02920000 </v>
     <v>       3.02920000       0.00000000       3.02920000 </v>
     <v>       3.02920000       3.02920000       0.00000000 </v>
    </varray>
    <i name="volume">     55.59219731 </i>
    <varray name="rec_basis" >
     <v>      -0.16506008       0.16506008       0.16506008 </v>
     <v>       0.16506008      -0.16506008       0.16506008 </v>
     <v>       0.16506008       0.16506008      -0.16506008 </v>
    </varray>
   </crystal>
   <varray name="positions" >
    <v>       0.00000000       0.00000000       0.00000000 </v>
    <v>       0.25000000       0.25000000       0.25000000 </v>
   </varray>
  </structure>
  <varray name="forces" >
   <v>      -0.00000000      -0.00000000      -0.00000000 </v>
   <v>       0.00000000       0.00000000       0.00000000 </v>
  </varray>
  <varray name="stress" >
   <v>     141.48713103       0.00000000       0.00000000 </v>
   <v>       0.00000000     141.48713103       0.00000000 </v>
   <v>      -0.00000000      -0.00000000     141.48713103 </v>
  </varray>
  <energy>
   <i name="e_fr_energy">    -10.78250809 </i>
   <i name="e_wo_entrp">    -10.78262194 </i>
   <i name="e_0_energy">      0.00034154 </i>
  </energy>
  <time name="totalsc">   19.63   19.89</time>
  <eigenvalues>
   <array>
    <dimension dim="1">band</dimension>
    <dimension dim="2">kpoint</dimension>
    <dimension dim="3">spin</dimension>
    <field>eigene</field>
    <field>occ</field>
    <set>
     <set comment="spin 1">
      <set comment="kpoint 1">
       <r>   -8.1718    1.0000 </r>
       <r>   -8.1718    1.0000 </r>
       <r>    2.6532    1.0000 </r>
       <r>    2.6532    1.0000 </r>
       <r>    2.9273    0.9834 </r>
       <r>    2.9273    0.9834 </r>
       <r>    2.9273    0.9834 </r>
       <r>    2.9273    0.9834 </r>
       <r>    3.2487   -0.0000 </r>
       <r>    3.2487   -0.0000 </r>
       <r>    7.2477    0.0000 </r>
       <r>    7.2477    0.0000 </r>
       <r>    7.7457    0.0000 </r>
       <r>    7.7457    0.0000 </r>
       <r>    7.7457    0.0000 </r>
       <r>    7.7457    0.0000 </r>
       <r>   10.7428    0.0000 </r>
       <r>   10.7428    0.0000 </r>
       <r>   12.8609    0.0000 </r>
       <r>   12.8609    0.0000 </r>
       <r>   12.8609    0.0000 </r>
       <r>   12.8609    0.0000 </r>
       <r>   13.6109    0.0000 </r>
       <r>   13.6109    0.0000 </r>
       <r>   13.6416    0.0000 </r>
       <r>   13.6416    0.0000 </r>
       <r>   13.6416    0.0000 </r>
       <r>   13.6416    0.0000 </r>
       <r>   16.1843    0.0000 </r>
       <r>   16.1843    0.0000 </r>
       <r>   24.4108    0.0000 </r>
       <r>   24.4108    0.0000 </r>
       <r>   24.4108    0.0000 </r>
       <r>   24.4108    0.0000 </r>
       <r>   24.5611    0.0000 </r>
       <r>   24.5611    0.0000 </r>
       <r>   25.7736    0.0000 </r>
       <r>   25.7736    0.0000 </r>
       <r>   25.7942    0.0000 </r>
       <r>   25.7942    0.0000 </r>
       <r>   25.7942    0.0000 </r>
       <r>   25.7942    0.0000 </r>
       <r>   25.8877    0.0000 </r>
       <r>   25.8877    0.0000 </r>
       <r>   25.8878    0.0000 </r>
       <r>   25.8878    0.0000 </r>
       <r>   25.8878    0.0000 </r>
       <r>   25.8878    0.0000 </r>
       <r>   26.2328    0.0000 </r>
       <r>   26.2328    0.0000 </r>
       <r>   26.2328    0.0000 </r>
       <r>   26.2328    0.0000 </r>
       <r>   33.4009    0.0000 </r>
       <r>   33.4703    0.0000 </r>
       <r>   33.5318    0.0000 </r>
       <r>   33.8095    0.0000 </r>
      </set>
      <set comment="kpoint 2">
       <r>   -8.1630    1.0000 </r>
       <r>   -8.1630    1.0000 </r>
       <r>    2.5395    1.0000 </r>
       <r>    2.5395    1.0000 </r>
       <r>    2.7843    1.0000 </r>
       <r>    2.7843    1.0000 </r>
       <r>    2.9036    1.0354 </r>
       <r>    2.9036    1.0354 </r>
       <r>    3.4833   -0.0000 </r>
       <r>    3.4833   -0.0000 </r>
       <r>    7.2542    0.0000 </r>
       <r>    7.2542    0.0000 </r>
       <r>    7.7242    0.0000 </r>
       <r>    7.7242    0.0000 </r>
       <r>    7.7757    0.0000 </r>
       <r>    7.7757    0.0000 </r>
       <r>   10.8137    0.0000 </r>
       <r>   10.8137    0.0000 </r>
       <r>   12.6176    0.0000 </r>
       <r>   12.6176    0.0000 </r>
       <r>   12.8702    0.0000 </r>
       <r>   12.8702    0.0000 </r>
       <r>   13.6403    0.0000 </r>
       <r>   13.6403    0.0000 </r>
       <r>   13.6600    0.0000 </r>
       <r>   13.6600    0.0000 </r>
       <r>   13.8338    0.0000 </r>
       <r>   13.8338    0.0000 </r>
       <r>   16.2789    0.0000 </r>
       <r>   16.2789    0.0000 </r>
       <r>   24.1689    0.0000 </r>
       <r>   24.1690    0.0000 </r>
       <r>   24.2806    0.0000 </r>
       <r>   24.2808    0.0000 </r>
       <r>   24.4782    0.0000 </r>
       <r>   24.4801    0.0000 </r>
       <r>   25.1787    0.0000 </r>
       <r>   25.1787    0.0000 </r>
       <r>   25.5602    0.0000 </r>
       <r>   25.5603    0.0000 </r>
       <r>   25.7016    0.0000 </r>
       <r>   25.7017    0.0000 </r>
       <r>   25.8508    0.0000 </r>
       <r>   25.8509    0.0000 </r>
       <r>   26.1689    0.0000 </r>
       <r>   26.1702    0.0000 </r>
       <r>   26.4491    0.0000 </r>
       <r>   26.4523    0.0000 </r>
       <r>   26.4940    0.0000 </r>
       <r>   26.4943    0.0000 </r>
       <r>   26.5351    0.0000 </r>
       <r>   26.5357    0.0000 </r>
       <r>   33.5133    0.0000 </r>
       <r>   33.6478    0.0000 </r>
       <r>   33.6571    0.0000 </r>
       <r>   34.6307    0.0000 </r>
      </set>
      <set comment="kpoint 3">
       <r>   -8.1364    1.0000 </r>
       <r>   -8.1364    1.0000 </r>
       <r>    2.2243    1.0000 </r>
       <r>    2.2243    1.0000 </r>
       <r>    2.6811    1.0000 </r>
       <r>    2.6811    1.0000 </r>
       <r>    2.8352    1.0007 </r>
       <r>    2.8352    1.0007 </r>
       <r>    3.8367   -0.0000 </r>
       <r>    3.8367   -0.0000 </r>
       <r>    7.2387    0.0000 </r>
       <r>    7.2387    0.0000 </r>
       <r>    7.7046    0.0000 </r>
       <r>    7.7046    0.0000 </r>
       <r>    7.8640    0.0000 </r>
       <r>    7.8640    0.0000 </r>
       <r>   11.0127    0.0000 </r>
       <r>   11.0127    0.0000 </r>
       <r>   12.1763    0.0000 </r>
       <r>   12.1763    0.0000 </r>
       <r>   12.8930    0.0000 </r>
       <r>   12.8930    0.0000 </r>
       <r>   13.7037    0.0000 </r>
       <r>   13.7037    0.0000 </r>
       <r>   13.7248    0.0000 </r>
       <r>   13.7248    0.0000 </r>
       <r>   14.1467    0.0000 </r>
       <r>   14.1467    0.0000 </r>
       <r>   16.5593    0.0000 </r>
       <r>   16.5593    0.0000 </r>
       <r>   23.6728    0.0000 </r>
       <r>   23.6730    0.0000 </r>
       <r>   23.8431    0.0000 </r>
       <r>   23.8437    0.0000 </r>
       <r>   24.3231    0.0000 </r>
       <r>   24.3261    0.0000 </r>
       <r>   24.5590    0.0000 </r>
       <r>   24.5594    0.0000 </r>
       <r>   25.3382    0.0000 </r>
       <r>   25.3576    0.0000 </r>
       <r>   25.6861    0.0000 </r>
       <r>   25.7154    0.0000 </r>
       <r>   25.9527    0.0000 </r>
       <r>   26.0059    0.0000 </r>
       <r>   26.5697    0.0000 </r>
       <r>   26.9086    0.0000 </r>
       <r>   27.0542    0.0000 </r>
       <r>   27.1074    0.0000 </r>
       <r>   30.4512    0.0000 </r>
       <r>   31.4098    0.0000 </r>
       <r>   32.4873    0.0000 </r>
       <r>   33.2023    0.0000 </r>
       <r>   33.3481    0.0000 </r>
       <r>   33.3505    0.0000 </r>
       <r>   35.2332    0.0000 </r>
       <r>   35.9004    0.0000 </r>
      </set>
      <set comment="kpoint 4">
       <r>   -8.0924    1.0000 </r>
       <r>   -8.0924    1.0000 </r>
       <r>    1.8604    1.0000 </r>
       <r>    1.8604    1.0000 </r>
       <r>    2.5784    1.0000 </r>
       <r>    2.5784    1.0000 </r>
       <r>    2.7285    1.0000 </r>
       <r>    2.7285    1.0000 </r>
       <r>    4.1969   -0.0000 </r>
       <r>    4.1969   -0.0000 </r>
       <r>    7.1340    0.0000 </r>
       <r>    7.1340    0.0000 </r>
       <r>    7.7750    0.0000 </r>
       <r>    7.7750    0.0000 </r>
       <r>    8.0055    0.0000 </r>
       <r>    8.0055    0.0000 </r>
       <r>   11.2994    0.0000 </r>
       <r>   11.2994    0.0000 </r>
       <r>   11.7226    0.0000 </r>
       <r>   11.7226    0.0000 </r>
       <r>   12.9310    0.0000 </r>
       <r>   12.9310    0.0000 </r>
       <r>   13.8084    0.0000 </r>
       <r>   13.8084    0.0000 </r>
       <r>   13.8325    0.0000 </r>
       <r>   13.8325    0.0000 </r>
       <r>   14.4227    0.0000 </r>
       <r>   14.4227    0.0000 </r>
       <r>   17.0063    0.0000 </r>
       <r>   17.0063    0.0000 </r>
       <r>   23.0956    0.0000 </r>
       <r>   23.0963    0.0000 </r>
       <r>   23.2821    0.0000 </r>
       <r>   23.2824    0.0000 </r>
       <r>   23.8504    0.0000 </r>
       <r>   23.8504    0.0000 </r>
       <r>   24.1440    0.0000 </r>
       <r>   24.1458    0.0000 </r>
       <r>   25.1844    0.0000 </r>
       <r>   25.2260    0.0000 </r>
       <r>   25.7123    0.0000 </r>
       <r>   25.7323    0.0000 </r>
       <r>   25.9803    0.0000 </r>
       <r>   26.0761    0.0000 </r>
       <r>   26.9045    0.0000 </r>
       <r>   27.4448    0.0000 </r>
       <r>   27.5946    0.0000 </r>
       <r>   27.6188    0.0000 </r>
       <r>   31.1754    0.0000 </r>
       <r>   31.7825    0.0000 </r>
       <r>   32.4681    0.0000 </r>
       <r>   33.6703    0.0000 </r>
       <r>   34.0429    0.0000 </r>
       <r>   34.1137    0.0000 </r>
       <r>   35.1326    0.0000 </r>
       <r>   35.6824    0.0000 </r>
      </set>
      <set comment="kpoint 5">
       <r>   -8.0311    1.0000 </r>
       <r>   -8.0311    1.0000 </r>
       <r>    1.4881    1.0000 </r>
       <r>    1.4881    1.0000 </r>
       <r>    2.4543    1.0000 </r>
       <r>    2.4543    1.0000 </r>
       <r>    2.5923    1.0000 </r>
       <r>    2.5923    1.0000 </r>
       <r>    4.5475    0.0000 </r>
       <r>    4.5475    0.0000 </r>
       <r>    6.9530    0.0000 </r>
       <r>    6.9530    0.0000 </r>
       <r>    7.9407    0.0000 </r>
       <r>    7.9407    0.0000 </r>
       <r>    8.1934    0.0000 </r>
       <r>    8.1934    0.0000 </r>
       <r>   11.2180    0.0000 </r>
       <r>   11.2180    0.0000 </r>
       <r>   11.7296    0.0000 </r>
       <r>   11.7296    0.0000 </r>
       <r>   12.9840    0.0000 </r>
       <r>   12.9840    0.0000 </r>
       <r>   13.9547    0.0000 </r>
       <r>   13.9547    0.0000 </r>
       <r>   13.9829    0.0000 </r>
       <r>   13.9829    0.0000 </r>
       <r>   14.6576    0.0000 </r>
       <r>   14.6576    0.0000 </r>
       <r>   17.5826    0.0000 </r>
       <r>   17.5826    0.0000 </r>
       <r>   22.5676    0.0000 </r>
       <r>   22.5699    0.0000 </r>
       <r>   22.8003    0.0000 </r>
       <r>   22.8153    0.0000 </r>
       <r>   23.7966    0.0000 </r>
       <r>   23.8651    0.0000 </r>
       <r>   24.3950    0.0000 </r>
       <r>   24.6185    0.0000 </r>
       <r>   25.1867    0.0000 </r>
       <r>   25.2982    0.0000 </r>
       <r>   26.2804    0.0000 </r>
       <r>   26.3908    0.0000 </r>
       <r>   26.4095    0.0000 </r>
       <r>   26.4213    0.0000 </r>
       <r>   27.6848    0.0000 </r>
       <r>   28.0162    0.0000 </r>
       <r>   28.5286    0.0000 </r>
       <r>   28.5697    0.0000 </r>
       <r>   28.8866    0.0000 </r>
       <r>   29.3803    0.0000 </r>
       <r>   29.3991    0.0000 </r>
       <r>   30.4701    0.0000 </r>
       <r>   34.8067    0.0000 </r>
       <r>   35.3013    0.0000 </r>
       <r>   35.9170    0.0000 </r>
       <r>   36.3773    0.0000 </r>
      </set>
      <set comment="kpoint 6">
       <r>   -7.9529    1.0000 </r>
       <r>   -7.9529    1.0000 </r>
       <r>    1.1149    1.0000 </r>
       <r>    1.1149    1.0000 </r>
       <r>    2.3122    1.0000 </r>
       <r>    2.3122    1.0000 </r>
       <r>    2.4358    1.0000 </r>
       <r>    2.4358    1.0000 </r>
       <r>    4.8771    0.0000 </r>
       <r>    4.8771    0.0000 </r>
       <r>    6.7423    0.0000 </r>
       <r>    6.7423    0.0000 </r>
       <r>    8.1668    0.0000 </r>
       <r>    8.1668    0.0000 </r>
       <r>    8.4203    0.0000 </r>
       <r>    8.4203    0.0000 </r>
       <r>   10.8183    0.0000 </r>
       <r>   10.8183    0.0000 </r>
       <r>   12.1489    0.0000 </r>
       <r>   12.1489    0.0000 </r>
       <r>   13.0522    0.0000 </r>
       <r>   13.0522    0.0000 </r>
       <r>   14.1424    0.0000 </r>
       <r>   14.1424    0.0000 </r>
       <r>   14.1752    0.0000 </r>
       <r>   14.1752    0.0000 </r>
       <r>   14.8739    0.0000 </r>
       <r>   14.8739    0.0000 </r>
       <r>   18.2484    0.0000 </r>
       <r>   18.2484    0.0000 </r>
       <r>   21.8832    0.0000 </r>
       <r>   21.8832    0.0000 </r>
       <r>   22.0784    0.0000 </r>
       <r>   22.0784    0.0000 </r>
       <r>   22.6513    0.0000 </r>
       <r>   22.6513    0.0000 </r>
       <r>   23.2698    0.0000 </r>
       <r>   23.2698    0.0000 </r>
       <r>   25.1009    0.0000 </r>
       <r>   25.1010    0.0000 </r>
       <r>   25.7310    0.0000 </r>
       <r>   25.7311    0.0000 </r>
       <r>   25.9135    0.0000 </r>
       <r>   25.9136    0.0000 </r>
       <r>   27.0431    0.0000 </r>
       <r>   27.0458    0.0000 </r>
       <r>   28.7448    0.0000 </r>
       <r>   28.7496    0.0000 </r>
       <r>   28.8615    0.0000 </r>
       <r>   28.8679    0.0000 </r>
       <r>   29.3297    0.0000 </r>
       <r>   29.3298    0.0000 </r>
       <r>   33.6696    0.0000 </r>
       <r>   34.7623    0.0000 </r>
       <r>   35.1153    0.0000 </r>
       <r>   35.8257    0.0000 </r>
      </set>
      <set comment="kpoint 7">
       <r>   -7.8583    1.0000 </r>
       <r>   -7.8583    1.0000 </r>
       <r>    0.7435    1.0000 </r>
       <r>    0.7435    1.0000 </r>
       <r>    2.1582    1.0000 </r>
       <r>    2.1582    1.0000 </r>
       <r>    2.2672    1.0000 </r>
       <r>    2.2672    1.0000 </r>
       <r>    5.1716    0.0000 </r>
       <r>    5.1716    0.0000 </r>
       <r>    6.5296    0.0000 </r>
       <r>    6.5296    0.0000 </r>
       <r>    8.4326    0.0000 </r>
       <r>    8.4326    0.0000 </r>
       <r>    8.6792    0.0000 </r>
       <r>    8.6792    0.0000 </r>
       <r>   10.4662    0.0000 </r>
       <r>   10.4662    0.0000 </r>
       <r>   12.6172    0.0000 </r>
       <r>   12.6172    0.0000 </r>
       <r>   13.1355    0.0000 </r>
       <r>   13.1355    0.0000 </r>
       <r>   14.3708    0.0000 </r>
       <r>   14.3708    0.0000 </r>
       <r>   14.4090    0.0000 </r>
       <r>   14.4090    0.0000 </r>
       <r>   15.0921    0.0000 </r>
       <r>   15.0921    0.0000 </r>
       <r>   18.9712    0.0000 </r>
       <r>   18.9712    0.0000 </r>
       <r>   21.2769    0.0000 </r>
       <r>   21.2769    0.0000 </r>
       <r>   21.4735    0.0000 </r>
       <r>   21.4736    0.0000 </r>
       <r>   22.0732    0.0000 </r>
       <r>   22.0732    0.0000 </r>
       <r>   22.7672    0.0000 </r>
       <r>   22.7672    0.0000 </r>
       <r>   25.1566    0.0000 </r>
       <r>   25.1567    0.0000 </r>
       <r>   25.7741    0.0000 </r>
       <r>   25.7742    0.0000 </r>
       <r>   25.9545    0.0000 </r>
       <r>   25.9546    0.0000 </r>
       <r>   27.1183    0.0000 </r>
       <r>   27.1184    0.0000 </r>
       <r>   29.2787    0.0000 </r>
       <r>   29.3047    0.0000 </r>
       <r>   29.4177    0.0000 </r>
       <r>   29.4756    0.0000 </r>
       <r>   30.0266    0.0000 </r>
       <r>   30.0276    0.0000 </r>
       <r>   31.2667    0.0000 </r>
       <r>   32.4116    0.0000 </r>
       <r>   34.5654    0.0000 </r>
       <r>   36.0573    0.0000 </r>
      </set>
      <set comment="kpoint 8">
       <r>   -7.7481    1.0000 </r>
       <r>   -7.7481    1.0000 </r>
       <r>    0.3752    1.0000 </r>
       <r>    0.3752    1.0000 </r>
       <r>    1.9983    1.0000 </r>
       <r>    1.9983    1.0000 </r>
       <r>    2.0934    1.0000 </r>
       <r>    2.0934    1.0000 </r>
       <r>    5.4107    0.0000 </r>
       <r>    5.4107    0.0000 </r>
       <r>    6.3333    0.0000 </r>
       <r>    6.3333    0.0000 </r>
       <r>    8.7267    0.0000 </r>
       <r>    8.7267    0.0000 </r>
       <r>    8.9638    0.0000 </r>
       <r>    8.9638    0.0000 </r>
       <r>   10.1890    0.0000 </r>
       <r>   10.1890    0.0000 </r>
       <r>   13.1128    0.0000 </r>
       <r>   13.1128    0.0000 </r>
       <r>   13.2336    0.0000 </r>
       <r>   13.2336    0.0000 </r>
       <r>   14.6393    0.0000 </r>
       <r>   14.6393    0.0000 </r>
       <r>   14.6831    0.0000 </r>
       <r>   14.6831    0.0000 </r>
       <r>   15.3268    0.0000 </r>
       <r>   15.3268    0.0000 </r>
       <r>   19.7197    0.0000 </r>
       <r>   19.7197    0.0000 </r>
       <r>   20.6786    0.0000 </r>
       <r>   20.6796    0.0000 </r>
       <r>   20.8750    0.0000 </r>
       <r>   20.8752    0.0000 </r>
       <r>   21.5150    0.0000 </r>
       <r>   21.5152    0.0000 </r>
       <r>   22.2647    0.0000 </r>
       <r>   22.2653    0.0000 </r>
       <r>   25.3195    0.0000 </r>
       <r>   25.3729    0.0000 </r>
       <r>   25.8574    0.0000 </r>
       <r>   25.9250    0.0000 </r>
       <r>   26.3242    0.0000 </r>
       <r>   26.4471    0.0000 </r>
       <r>   28.0053    0.0000 </r>
       <r>   28.5264    0.0000 </r>
       <r>   29.9065    0.0000 </r>
       <r>   30.0036    0.0000 </r>
       <r>   30.5573    0.0000 </r>
       <r>   30.5598    0.0000 </r>
       <r>   32.0815    0.0000 </r>
       <r>   32.2933    0.0000 </r>
       <r>   33.5757    0.0000 </r>
       <r>   34.3297    0.0000 </r>
       <r>   34.8572    0.0000 </r>
       <r>   34.8650    0.0000 </r>
      </set>
      <set comment="kpoint 9">
       <r>   -7.6231    1.0000 </r>
       <r>   -7.6231    1.0000 </r>
       <r>    0.0112    1.0000 </r>
       <r>    0.0112    1.0000 </r>
       <r>    1.8376    1.0000 </r>
       <r>    1.8376    1.0000 </r>
       <r>    1.9201    1.0000 </r>
       <r>    1.9201    1.0000 </r>
       <r>    5.5639    0.0000 </r>
       <r>    5.5639    0.0000 </r>
       <r>    6.1743    0.0000 </r>
       <r>    6.1743    0.0000 </r>
       <r>    9.0413    0.0000 </r>
       <r>    9.0413    0.0000 </r>
       <r>    9.2688    0.0000 </r>
       <r>    9.2688    0.0000 </r>
       <r>   10.0063    0.0000 </r>
       <r>   10.0063    0.0000 </r>
       <r>   13.3462    0.0000 </r>
       <r>   13.3462    0.0000 </r>
       <r>   13.6228    0.0000 </r>
       <r>   13.6228    0.0000 </r>
       <r>   14.9466    0.0000 </r>
       <r>   14.9466    0.0000 </r>
       <r>   14.9965    0.0000 </r>
       <r>   14.9965    0.0000 </r>
       <r>   15.5889    0.0000 </r>
       <r>   15.5889    0.0000 </r>
       <r>   20.0862    0.0000 </r>
       <r>   20.1014    0.0000 </r>
       <r>   20.2816    0.0000 </r>
       <r>   20.2937    0.0000 </r>
       <r>   20.4377    0.0000 </r>
       <r>   20.4395    0.0000 </r>
       <r>   20.9867    0.0000 </r>
       <r>   20.9971    0.0000 </r>
       <r>   21.8306    0.0000 </r>
       <r>   21.8319    0.0000 </r>
       <r>   25.4727    0.0000 </r>
       <r>   25.5471    0.0000 </r>
       <r>   26.1698    0.0000 </r>
       <r>   26.3709    0.0000 </r>
       <r>   26.7807    0.0000 </r>
       <r>   27.1983    0.0000 </r>
       <r>   27.9366    0.0000 </r>
       <r>   28.0271    0.0000 </r>
       <r>   30.5555    0.0000 </r>
       <r>   31.2390    0.0000 </r>
       <r>   31.7547    0.0000 </r>
       <r>   31.7598    0.0000 </r>
       <r>   32.3432    0.0000 </r>
       <r>   33.6506    0.0000 </r>
       <r>   33.7629    0.0000 </r>
       <r>   33.8828    0.0000 </r>
       <r>   35.0618    0.0000 </r>
       <r>   35.5207    0.0000 </r>
      </set>
      <set comment="kpoint 10">
       <r>   -7.4845    1.0000 </r>
       <r>   -7.4845    1.0000 </r>
       <r>   -0.3472    1.0000 </r>
       <r>   -0.3472    1.0000 </r>
       <r>    1.6804    1.0000 </r>
       <r>    1.6804    1.0000 </r>
       <r>    1.7515    1.0000 </r>
       <r>    1.7515    1.0000 </r>
       <r>    5.5981    0.0000 </r>
       <r>    5.5981    0.0000 </r>
       <r>    6.0765    0.0000 </r>
       <r>    6.0765    0.0000 </r>
       <r>    9.3706    0.0000 </r>
       <r>    9.3706    0.0000 </r>
       <r>    9.5891    0.0000 </r>
       <r>    9.5891    0.0000 </r>
       <r>    9.9339    0.0000 </r>
       <r>    9.9339    0.0000 </r>
       <r>   13.4732    0.0000 </r>
       <r>   13.4732    0.0000 </r>
       <r>   14.1329    0.0000 </r>
       <r>   14.1329    0.0000 </r>
       <r>   15.2910    0.0000 </r>
       <r>   15.2910    0.0000 </r>
       <r>   15.3474    0.0000 </r>
       <r>   15.3474    0.0000 </r>
       <r>   15.8885    0.0000 </r>
       <r>   15.8885    0.0000 </r>
       <r>   19.5652    0.0000 </r>
       <r>   19.6355    0.0000 </r>
       <r>   19.7328    0.0000 </r>
       <r>   19.7688    0.0000 </r>
       <r>   20.4779    0.0000 </r>
       <r>   20.5606    0.0000 </r>
       <r>   20.6913    0.0000 </r>
       <r>   20.7717    0.0000 </r>
       <r>   21.7443    0.0000 </r>
       <r>   21.7852    0.0000 </r>
       <r>   25.6007    0.0000 </r>
       <r>   25.6810    0.0000 </r>
       <r>   26.0444    0.0000 </r>
       <r>   26.2681    0.0000 </r>
       <r>   27.0597    0.0000 </r>
       <r>   27.1620    0.0000 </r>
       <r>   28.6657    0.0000 </r>
       <r>   29.6735    0.0000 </r>
       <r>   31.1177    0.0000 </r>
       <r>   31.4068    0.0000 </r>
       <r>   31.6896    0.0000 </r>
       <r>   31.9498    0.0000 </r>
       <r>   32.1086    0.0000 </r>
       <r>   33.9244    0.0000 </r>
       <r>   34.1242    0.0000 </r>
       <r>   34.2089    0.0000 </r>
       <r>   37.0089    0.0000 </r>
       <r>   38.3017    0.0000 </r>
      </set>
      <set comment="kpoint 11">
       <r>   -7.3340    1.0000 </r>
       <r>   -7.3340    1.0000 </r>
       <r>   -0.6981    1.0000 </r>
       <r>   -0.6981    1.0000 </r>
       <r>    1.5304    1.0000 </r>
       <r>    1.5304    1.0000 </r>
       <r>    1.5913    1.0000 </r>
       <r>    1.5913    1.0000 </r>
       <r>    5.5295    0.0000 </r>
       <r>    5.5295    0.0000 </r>
       <r>    6.0217    0.0000 </r>
       <r>    6.0217    0.0000 </r>
       <r>    9.7082    0.0000 </r>
       <r>    9.7082    0.0000 </r>
       <r>    9.9103    0.0000 </r>
       <r>    9.9103    0.0000 </r>
       <r>    9.9893    0.0000 </r>
       <r>    9.9893    0.0000 </r>
       <r>   13.6140    0.0000 </r>
       <r>   13.6140    0.0000 </r>
       <r>   14.6257    0.0000 </r>
       <r>   14.6257    0.0000 </r>
       <r>   15.6702    0.0000 </r>
       <r>   15.6702    0.0000 </r>
       <r>   15.7335    0.0000 </r>
       <r>   15.7335    0.0000 </r>
       <r>   16.2358    0.0000 </r>
       <r>   16.2358    0.0000 </r>
       <r>   18.9654    0.0000 </r>
       <r>   18.9966    0.0000 </r>
       <r>   19.1520    0.0000 </r>
       <r>   19.1748    0.0000 </r>
       <r>   20.0245    0.0000 </r>
       <r>   20.0931    0.0000 </r>
       <r>   20.3690    0.0000 </r>
       <r>   20.3830    0.0000 </r>
       <r>   22.4517    0.0000 </r>
       <r>   22.4564    0.0000 </r>
       <r>   25.6730    0.0000 </r>
       <r>   25.7092    0.0000 </r>
       <r>   25.8504    0.0000 </r>
       <r>   25.8586    0.0000 </r>
       <r>   26.2008    0.0000 </r>
       <r>   26.4370    0.0000 </r>
       <r>   26.9676    0.0000 </r>
       <r>   27.7014    0.0000 </r>
       <r>   29.5774    0.0000 </r>
       <r>   30.8038    0.0000 </r>
       <r>   31.1422    0.0000 </r>
       <r>   32.1535    0.0000 </r>
       <r>   32.2464    0.0000 </r>
       <r>   32.3764    0.0000 </r>
       <r>   32.6672    0.0000 </r>
       <r>   33.7245    0.0000 </r>
       <r>   34.3151    0.0000 </r>
       <r>   35.7513    0.0000 </r>
      </set>
      <set comment="kpoint 12">
       <r>   -7.1735    1.0000 </r>
       <r>   -7.1735    1.0000 </r>
       <r>   -1.0394    1.0000 </r>
       <r>   -1.0394    1.0000 </r>
       <r>    1.3903    1.0000 </r>
       <r>    1.3903    1.0000 </r>
       <r>    1.4422    1.0000 </r>
       <r>    1.4422    1.0000 </r>
       <r>    5.4212    0.0000 </r>
       <r>    5.4212    0.0000 </r>
       <r>    5.9571    0.0000 </r>
       <r>    5.9571    0.0000 </r>
       <r>   10.0312    0.0000 </r>
       <r>   10.0312    0.0000 </r>
       <r>   10.1326    0.0000 </r>
       <r>   10.1326    0.0000 </r>
       <r>   10.2779    0.0000 </r>
       <r>   10.2779    0.0000 </r>
       <r>   13.7678    0.0000 </r>
       <r>   13.7678    0.0000 </r>
       <r>   15.0794    0.0000 </r>
       <r>   15.0794    0.0000 </r>
       <r>   16.0805    0.0000 </r>
       <r>   16.0805    0.0000 </r>
       <r>   16.1509    0.0000 </r>
       <r>   16.1509    0.0000 </r>
       <r>   16.6393    0.0000 </r>
       <r>   16.6393    0.0000 </r>
       <r>   18.4142    0.0000 </r>
       <r>   18.4246    0.0000 </r>
       <r>   18.5987    0.0000 </r>
       <r>   18.6083    0.0000 </r>
       <r>   19.4970    0.0000 </r>
       <r>   19.5118    0.0000 </r>
       <r>   20.0201    0.0000 </r>
       <r>   20.0304    0.0000 </r>
       <r>   23.2334    0.0000 </r>
       <r>   23.2364    0.0000 </r>
       <r>   25.6547    0.0000 </r>
       <r>   25.7779    0.0000 </r>
       <r>   25.8223    0.0000 </r>
       <r>   25.9235    0.0000 </r>
       <r>   26.2046    0.0000 </r>
       <r>   26.3079    0.0000 </r>
       <r>   26.8513    0.0000 </r>
       <r>   26.8531    0.0000 </r>
       <r>   31.3373    0.0000 </r>
       <r>   31.7856    0.0000 </r>
       <r>   32.8325    0.0000 </r>
       <r>   32.9142    0.0000 </r>
       <r>   33.2987    0.0000 </r>
       <r>   33.6389    0.0000 </r>
       <r>   34.0915    0.0000 </r>
       <r>   34.1107    0.0000 </r>
       <r>   37.2544    0.0000 </r>
       <r>   37.4766    0.0000 </r>
      </set>
      <set comment="kpoint 13">
       <r>   -7.0059    1.0000 </r>
       <r>   -7.0059    1.0000 </r>
       <r>   -1.3679    1.0000 </r>
       <r>   -1.3679    1.0000 </r>
       <r>    1.2625    1.0000 </r>
       <r>    1.2625    1.0000 </r>
       <r>    1.3065    1.0000 </r>
       <r>    1.3065    1.0000 </r>
       <r>    5.3117    0.0000 </r>
       <r>    5.3117    0.0000 </r>
       <r>    5.8638    0.0000 </r>
       <r>    5.8638    0.0000 </r>
       <r>   10.2967    0.0000 </r>
       <r>   10.2967    0.0000 </r>
       <r>   10.4453    0.0000 </r>
       <r>   10.4453    0.0000 </r>
       <r>   10.6256    0.0000 </r>
       <r>   10.6256    0.0000 </r>
       <r>   13.9333    0.0000 </r>
       <r>   13.9333    0.0000 </r>
       <r>   15.4692    0.0000 </r>
       <r>   15.4692    0.0000 </r>
       <r>   16.5141    0.0000 </r>
       <r>   16.5141    0.0000 </r>
       <r>   16.5900    0.0000 </r>
       <r>   16.5900    0.0000 </r>
       <r>   17.0987    0.0000 </r>
       <r>   17.0987    0.0000 </r>
       <r>   17.9054    0.0000 </r>
       <r>   17.9138    0.0000 </r>
       <r>   18.0836    0.0000 </r>
       <r>   18.0925    0.0000 </r>
       <r>   19.0516    0.0000 </r>
       <r>   19.0543    0.0000 </r>
       <r>   19.6556    0.0000 </r>
       <r>   19.6564    0.0000 </r>
       <r>   23.9804    0.0000 </r>
       <r>   23.9833    0.0000 </r>
       <r>   25.2188    0.0000 </r>
       <r>   25.2915    0.0000 </r>
       <r>   25.4226    0.0000 </r>
       <r>   25.5350    0.0000 </r>
       <r>   26.1571    0.0000 </r>
       <r>   26.2015    0.0000 </r>
       <r>   26.8672    0.0000 </r>
       <r>   27.1477    0.0000 </r>
       <r>   29.5227    0.0000 </r>
       <r>   30.5736    0.0000 </r>
       <r>   31.4573    0.0000 </r>
       <r>   31.5063    0.0000 </r>
       <r>   33.6339    0.0000 </r>
       <r>   34.0717    0.0000 </r>
       <r>   34.1282    0.0000 </r>
       <r>   34.6222    0.0000 </r>
       <r>   37.1084    0.0000 </r>
       <r>   37.7324    0.0000 </r>
      </set>
      <set comment="kpoint 14">
       <r>   -6.8349    1.0000 </r>
       <r>   -6.8349    1.0000 </r>
       <r>   -1.6796    1.0000 </r>
       <r>   -1.6796    1.0000 </r>
       <r>    1.1488    1.0000 </r>
       <r>    1.1488    1.0000 </r>
       <r>    1.1857    1.0000 </r>
       <r>    1.1857    1.0000 </r>
       <r>    5.2149    0.0000 </r>
       <r>    5.2149    0.0000 </r>
       <r>    5.7491    0.0000 </r>
       <r>    5.7491    0.0000 </r>
       <r>   10.5780    0.0000 </r>
       <r>   10.5780    0.0000 </r>
       <r>   10.7963    0.0000 </r>
       <r>   10.7963    0.0000 </r>
       <r>   10.9778    0.0000 </r>
       <r>   10.9778    0.0000 </r>
       <r>   14.1086    0.0000 </r>
       <r>   14.1087    0.0000 </r>
       <r>   15.7684    0.0000 </r>
       <r>   15.7685    0.0000 </r>
       <r>   16.9263    0.0000 </r>
       <r>   16.9315    0.0000 </r>
       <r>   16.9926    0.0000 </r>
       <r>   16.9982    0.0000 </r>
       <r>   17.5127    0.0000 </r>
       <r>   17.5606    0.0000 </r>
       <r>   17.6000    0.0000 </r>
       <r>   17.6044    0.0000 </r>
       <r>   17.6150    0.0000 </r>
       <r>   17.6539    0.0000 </r>
       <r>   18.6154    0.0000 </r>
       <r>   18.6214    0.0000 </r>
       <r>   19.4079    0.0000 </r>
       <r>   19.4100    0.0000 </r>
       <r>   24.6044    0.0000 </r>
       <r>   24.6440    0.0000 </r>
       <r>   25.2892    0.0000 </r>
       <r>   25.4504    0.0000 </r>
       <r>   25.9840    0.0000 </r>
       <r>   26.0061    0.0000 </r>
       <r>   26.1405    0.0000 </r>
       <r>   26.1884    0.0000 </r>
       <r>   27.7647    0.0000 </r>
       <r>   28.0128    0.0000 </r>
       <r>   29.9906    0.0000 </r>
       <r>   30.4018    0.0000 </r>
       <r>   30.4745    0.0000 </r>
       <r>   30.5291    0.0000 </r>
       <r>   34.4788    0.0000 </r>
       <r>   34.5749    0.0000 </r>
       <r>   34.6377    0.0000 </r>
       <r>   34.9532    0.0000 </r>
       <r>   35.6044    0.0000 </r>
       <r>   35.8560    0.0000 </r>
      </set>
      <set comment="kpoint 15">
       <r>   -6.6655    1.0000 </r>
       <r>   -6.6655    1.0000 </r>
       <r>   -1.9690    1.0000 </r>
       <r>   -1.9690    1.0000 </r>
       <r>    1.0505    1.0000 </r>
       <r>    1.0505    1.0000 </r>
       <r>    1.0812    1.0000 </r>
       <r>    1.0812    1.0000 </r>
       <r>    5.1363    0.0000 </r>
       <r>    5.1363    0.0000 </r>
       <r>    5.6260    0.0000 </r>
       <r>    5.6260    0.0000 </r>
       <r>   10.8841    0.0000 </r>
       <r>   10.8841    0.0000 </r>
       <r>   11.1478    0.0000 </r>
       <r>   11.1478    0.0000 </r>
       <r>   11.3272    0.0000 </r>
       <r>   11.3272    0.0000 </r>
       <r>   14.2902    0.0000 </r>
       <r>   14.2903    0.0000 </r>
       <r>   15.9437    0.0000 </r>
       <r>   15.9442    0.0000 </r>
       <r>   16.8271    0.0000 </r>
       <r>   16.8415    0.0000 </r>
       <r>   16.9276    0.0000 </r>
       <r>   16.9306    0.0000 </r>
       <r>   17.6363    0.0000 </r>
       <r>   17.6424    0.0000 </r>
       <r>   17.7389    0.0000 </r>
       <r>   17.7395    0.0000 </r>
       <r>   18.1120    0.0000 </r>
       <r>   18.1130    0.0000 </r>
       <r>   18.2325    0.0000 </r>
       <r>   18.2360    0.0000 </r>
       <r>   19.3091    0.0000 </r>
       <r>   19.3185    0.0000 </r>
       <r>   24.5949    0.0000 </r>
       <r>   24.6600    0.0000 </r>
       <r>   24.7128    0.0000 </r>
       <r>   24.8524    0.0000 </r>
       <r>   24.9853    0.0000 </r>
       <r>   25.5371    0.0000 </r>
       <r>   25.8971    0.0000 </r>
       <r>   26.2231    0.0000 </r>
       <r>   26.9785    0.0000 </r>
       <r>   27.0448    0.0000 </r>
       <r>   27.7344    0.0000 </r>
       <r>   27.7977    0.0000 </r>
       <r>   28.9753    0.0000 </r>
       <r>   30.0214    0.0000 </r>
       <r>   34.6462    0.0000 </r>
       <r>   34.7433    0.0000 </r>
       <r>   34.8812    0.0000 </r>
       <r>   35.0454    0.0000 </r>
       <r>   35.5190    0.0000 </r>
       <r>   35.8233    0.0000 </r>
      </set>
      <set comment="kpoint 16">
       <r>   -6.5044    1.0000 </r>
       <r>   -6.5044    1.0000 </r>
       <r>   -2.2290    1.0000 </r>
       <r>   -2.2290    1.0000 </r>
       <r>    0.9689    1.0000 </r>
       <r>    0.9689    1.0000 </r>
       <r>    0.9942    1.0000 </r>
       <r>    0.9942    1.0000 </r>
       <r>    5.0777    0.0000 </r>
       <r>    5.0777    0.0000 </r>
       <r>    5.5058    0.0000 </r>
       <r>    5.5058    0.0000 </r>
       <r>   11.1958    0.0000 </r>
       <r>   11.1958    0.0000 </r>
       <r>   11.4879    0.0000 </r>
       <r>   11.4879    0.0000 </r>
       <r>   11.6653    0.0000 </r>
       <r>   11.6653    0.0000 </r>
       <r>   14.4727    0.0000 </r>
       <r>   14.4729    0.0000 </r>
       <r>   15.9716    0.0000 </r>
       <r>   15.9727    0.0000 </r>
       <r>   16.4337    0.0000 </r>
       <r>   16.4428    0.0000 </r>
       <r>   16.5169    0.0000 </r>
       <r>   16.5265    0.0000 </r>
       <r>   17.8838    0.0000 </r>
       <r>   17.8838    0.0000 </r>
       <r>   18.1353    0.0000 </r>
       <r>   18.1365    0.0000 </r>
       <r>   18.2401    0.0000 </r>
       <r>   18.2402    0.0000 </r>
       <r>   18.5598    0.0000 </r>
       <r>   18.5607    0.0000 </r>
       <r>   19.4928    0.0000 </r>
       <r>   19.4960    0.0000 </r>
       <r>   23.2322    0.0000 </r>
       <r>   23.2544    0.0000 </r>
       <r>   23.4741    0.0000 </r>
       <r>   23.5431    0.0000 </r>
       <r>   24.8213    0.0000 </r>
       <r>   24.9984    0.0000 </r>
       <r>   25.9711    0.0000 </r>
       <r>   26.0444    0.0000 </r>
       <r>   27.2418    0.0000 </r>
       <r>   27.3037    0.0000 </r>
       <r>   28.3710    0.0000 </r>
       <r>   30.9846    0.0000 </r>
       <r>   31.0196    0.0000 </r>
       <r>   31.1881    0.0000 </r>
       <r>   33.4049    0.0000 </r>
       <r>   33.7169    0.0000 </r>
       <r>   35.1695    0.0000 </r>
       <r>   35.5622    0.0000 </r>
       <r>   37.6779    0.0000 </r>
       <r>   38.3752    0.0000 </r>
      </set>
      <set comment="kpoint 17">
       <r>   -6.3606    1.0000 </r>
       <r>   -6.3606    1.0000 </r>
       <r>   -2.4503    1.0000 </r>
       <r>   -2.4503    1.0000 </r>
       <r>    0.9049    1.0000 </r>
       <r>    0.9049    1.0000 </r>
       <r>    0.9255    1.0000 </r>
       <r>    0.9255    1.0000 </r>
       <r>    5.0394    0.0000 </r>
       <r>    5.0394    0.0000 </r>
       <r>    5.3977    0.0000 </r>
       <r>    5.3977    0.0000 </r>
       <r>   11.4900    0.0000 </r>
       <r>   11.4900    0.0000 </r>
       <r>   11.8024    0.0000 </r>
       <r>   11.8027    0.0000 </r>
       <r>   11.9788    0.0000 </r>
       <r>   11.9790    0.0000 </r>
       <r>   14.6495    0.0000 </r>
       <r>   14.6500    0.0000 </r>
       <r>   15.8679    0.0000 </r>
       <r>   15.8821    0.0000 </r>
       <r>   16.1115    0.0000 </r>
       <r>   16.1308    0.0000 </r>
       <r>   16.1318    0.0000 </r>
       <r>   16.1657    0.0000 </r>
       <r>   17.5744    0.0000 </r>
       <r>   17.5745    0.0000 </r>
       <r>   18.6873    0.0000 </r>
       <r>   18.6908    0.0000 </r>
       <r>   18.7951    0.0000 </r>
       <r>   18.7970    0.0000 </r>
       <r>   18.9699    0.0000 </r>
       <r>   18.9735    0.0000 </r>
       <r>   19.9570    0.0000 </r>
       <r>   19.9581    0.0000 </r>
       <r>   23.0456    0.0000 </r>
       <r>   23.1459    0.0000 </r>
       <r>   23.8803    0.0000 </r>
       <r>   24.0991    0.0000 </r>
       <r>   24.2508    0.0000 </r>
       <r>   24.4227    0.0000 </r>
       <r>   26.0161    0.0000 </r>
       <r>   26.1654    0.0000 </r>
       <r>   26.6698    0.0000 </r>
       <r>   26.7289    0.0000 </r>
       <r>   28.1742    0.0000 </r>
       <r>   28.2056    0.0000 </r>
       <r>   31.4068    0.0000 </r>
       <r>   31.9135    0.0000 </r>
       <r>   34.2126    0.0000 </r>
       <r>   34.4350    0.0000 </r>
       <r>   35.1811    0.0000 </r>
       <r>   36.1993    0.0000 </r>
       <r>   37.4166    0.0000 </r>
       <r>   37.4581    0.0000 </r>
      </set>
      <set comment="kpoint 18">
       <r>   -6.2449    1.0000 </r>
       <r>   -6.2449    1.0000 </r>
       <r>   -2.6216    1.0000 </r>
       <r>   -2.6216    1.0000 </r>
       <r>    0.8590    1.0000 </r>
       <r>    0.8590    1.0000 </r>
       <r>    0.8757    1.0000 </r>
       <r>    0.8757    1.0000 </r>
       <r>    5.0197    0.0000 </r>
       <r>    5.0197    0.0000 </r>
       <r>    5.3093    0.0000 </r>
       <r>    5.3093    0.0000 </r>
       <r>   11.7382    0.0000 </r>
       <r>   11.7383    0.0000 </r>
       <r>   12.0682    0.0000 </r>
       <r>   12.0683    0.0000 </r>
       <r>   12.2443    0.0000 </r>
       <r>   12.2443    0.0000 </r>
       <r>   14.8027    0.0000 </r>
       <r>   14.8035    0.0000 </r>
       <r>   15.6623    0.0000 </r>
       <r>   15.6709    0.0000 </r>
       <r>   15.8300    0.0000 </r>
       <r>   15.8399    0.0000 </r>
       <r>   15.8499    0.0000 </r>
       <r>   15.8540    0.0000 </r>
       <r>   17.3255    0.0000 </r>
       <r>   17.3301    0.0000 </r>
       <r>   19.2608    0.0000 </r>
       <r>   19.2632    0.0000 </r>
       <r>   19.3732    0.0000 </r>
       <r>   19.3777    0.0000 </r>
       <r>   19.3862    0.0000 </r>
       <r>   19.3874    0.0000 </r>
       <r>   20.5331    0.0000 </r>
       <r>   20.5368    0.0000 </r>
       <r>   22.0902    0.0000 </r>
       <r>   22.1646    0.0000 </r>
       <r>   22.4420    0.0000 </r>
       <r>   22.8567    0.0000 </r>
       <r>   22.9319    0.0000 </r>
       <r>   23.3134    0.0000 </r>
       <r>   24.4429    0.0000 </r>
       <r>   24.4641    0.0000 </r>
       <r>   26.0029    0.0000 </r>
       <r>   26.2394    0.0000 </r>
       <r>   29.2922    0.0000 </r>
       <r>   29.3275    0.0000 </r>
       <r>   29.3618    0.0000 </r>
       <r>   29.4394    0.0000 </r>
       <r>   30.7252    0.0000 </r>
       <r>   32.9877    0.0000 </r>
       <r>   34.2954    0.0000 </r>
       <r>   35.2086    0.0000 </r>
       <r>   36.9385    0.0000 </r>
       <r>   37.3773    0.0000 </r>
      </set>
      <set comment="kpoint 19">
       <r>   -6.1690    1.0000 </r>
       <r>   -6.1690    1.0000 </r>
       <r>   -2.7309    1.0000 </r>
       <r>   -2.7309    1.0000 </r>
       <r>    0.8315    1.0000 </r>
       <r>    0.8315    1.0000 </r>
       <r>    0.8456    1.0000 </r>
       <r>    0.8456    1.0000 </r>
       <r>    5.0139    0.0000 </r>
       <r>    5.0139    0.0000 </r>
       <r>    5.2489    0.0000 </r>
       <r>    5.2489    0.0000 </r>
       <r>   11.9080    0.0000 </r>
       <r>   11.9080    0.0000 </r>
       <r>   12.2520    0.0000 </r>
       <r>   12.2520    0.0000 </r>
       <r>   12.4280    0.0000 </r>
       <r>   12.4280    0.0000 </r>
       <r>   14.9072    0.0000 </r>
       <r>   14.9073    0.0000 </r>
       <r>   15.4627    0.0000 </r>
       <r>   15.4627    0.0000 </r>
       <r>   15.5639    0.0000 </r>
       <r>   15.5640    0.0000 </r>
       <r>   15.7390    0.0000 </r>
       <r>   15.7391    0.0000 </r>
       <r>   17.1686    0.0000 </r>
       <r>   17.1688    0.0000 </r>
       <r>   19.7710    0.0000 </r>
       <r>   19.7748    0.0000 </r>
       <r>   19.8700    0.0000 </r>
       <r>   19.8703    0.0000 </r>
       <r>   19.9670    0.0000 </r>
       <r>   19.9671    0.0000 </r>
       <r>   20.9190    0.0000 </r>
       <r>   20.9249    0.0000 </r>
       <r>   21.3403    0.0000 </r>
       <r>   21.4159    0.0000 </r>
       <r>   21.4381    0.0000 </r>
       <r>   21.4409    0.0000 </r>
       <r>   22.6667    0.0000 </r>
       <r>   23.2482    0.0000 </r>
       <r>   23.9798    0.0000 </r>
       <r>   24.4555    0.0000 </r>
       <r>   26.7712    0.0000 </r>
       <r>   26.8053    0.0000 </r>
       <r>   27.9463    0.0000 </r>
       <r>   29.0429    0.0000 </r>
       <r>   30.1382    0.0000 </r>
       <r>   30.1515    0.0000 </r>
       <r>   30.2319    0.0000 </r>
       <r>   30.6639    0.0000 </r>
       <r>   32.9991    0.0000 </r>
       <r>   33.6692    0.0000 </r>
       <r>   35.7933    0.0000 </r>
       <r>   36.5805    0.0000 </r>
      </set>
      <set comment="kpoint 20">
       <r>   -6.1424    1.0000 </r>
       <r>   -6.1424    1.0000 </r>
       <r>   -2.7686    1.0000 </r>
       <r>   -2.7686    1.0000 </r>
       <r>    0.8223    1.0000 </r>
       <r>    0.8223    1.0000 </r>
       <r>    0.8354    1.0000 </r>
       <r>    0.8354    1.0000 </r>
       <r>    5.0137    0.0000 </r>
       <r>    5.0137    0.0000 </r>
       <r>    5.2269    0.0000 </r>
       <r>    5.2269    0.0000 </r>
       <r>   11.9693    0.0000 </r>
       <r>   11.9694    0.0000 </r>
       <r>   12.3193    0.0000 </r>
       <r>   12.3194    0.0000 </r>
       <r>   12.4952    0.0000 </r>
       <r>   12.4953    0.0000 </r>
       <r>   14.9471    0.0000 </r>
       <r>   14.9473    0.0000 </r>
       <r>   15.4007    0.0000 </r>
       <r>   15.4023    0.0000 </r>
       <r>   15.4733    0.0000 </r>
       <r>   15.4740    0.0000 </r>
       <r>   15.6890    0.0000 </r>
       <r>   15.6890    0.0000 </r>
       <r>   17.1103    0.0000 </r>
       <r>   17.1105    0.0000 </r>
       <r>   20.1112    0.0000 </r>
       <r>   20.1304    0.0000 </r>
       <r>   20.2838    0.0000 </r>
       <r>   20.3609    0.0000 </r>
       <r>   20.3843    0.0000 </r>
       <r>   20.4512    0.0000 </r>
       <r>   20.7348    0.0000 </r>
       <r>   20.7620    0.0000 </r>
       <r>   20.9159    0.0000 </r>
       <r>   20.9807    0.0000 </r>
       <r>   21.4575    0.0000 </r>
       <r>   21.5478    0.0000 </r>
       <r>   22.3434    0.0000 </r>
       <r>   22.3467    0.0000 </r>
       <r>   22.6112    0.0000 </r>
       <r>   22.9613    0.0000 </r>
       <r>   26.8792    0.0000 </r>
       <r>   26.9998    0.0000 </r>
       <r>   27.9894    0.0000 </r>
       <r>   28.1385    0.0000 </r>
       <r>   30.1101    0.0000 </r>
       <r>   30.2673    0.0000 </r>
       <r>   31.5400    0.0000 </r>
       <r>   32.0664    0.0000 </r>
       <r>   32.9939    0.0000 </r>
       <r>   33.4707    0.0000 </r>
       <r>   35.1264    0.0000 </r>
       <r>   35.3132    0.0000 </r>
      </set>
      <set comment="kpoint 21">
       <r>   -6.1424    1.0000 </r>
       <r>   -6.1424    1.0000 </r>
       <r>   -2.7686    1.0000 </r>
       <r>   -2.7686    1.0000 </r>
       <r>    0.8223    1.0000 </r>
       <r>    0.8223    1.0000 </r>
       <r>    0.8354    1.0000 </r>
       <r>    0.8354    1.0000 </r>
       <r>    5.0137    0.0000 </r>
       <r>    5.0137    0.0000 </r>
       <r>    5.2269    0.0000 </r>
       <r>    5.2269    0.0000 </r>
       <r>   11.9701    0.0000 </r>
       <r>   11.9702    0.0000 </r>
       <r>   12.3212    0.0000 </r>
       <r>   12.3225    0.0000 </r>
       <r>   12.4965    0.0000 </r>
       <r>   12.4980    0.0000 </r>
       <r>   14.9561    0.0000 </r>
       <r>   14.9569    0.0000 </r>
       <r>   15.4134    0.0000 </r>
       <r>   15.4369    0.0000 </r>
       <r>   15.4759    0.0000 </r>
       <r>   15.4951    0.0000 </r>
       <r>   15.6533    0.0000 </r>
       <r>   15.6823    0.0000 </r>
       <r>   17.1034    0.0000 </r>
       <r>   17.1041    0.0000 </r>
       <r>   20.2856    0.0000 </r>
       <r>   20.3150    0.0000 </r>
       <r>   20.4015    0.0000 </r>
       <r>   20.4519    0.0000 </r>
       <r>   20.4895    0.0000 </r>
       <r>   20.5738    0.0000 </r>
       <r>   20.8558    0.0000 </r>
       <r>   20.9148    0.0000 </r>
       <r>   21.0887    0.0000 </r>
       <r>   21.1375    0.0000 </r>
       <r>   21.2215    0.0000 </r>
       <r>   21.4156    0.0000 </r>
       <r>   21.9125    0.0000 </r>
       <r>   22.2127    0.0000 </r>
       <r>   22.2284    0.0000 </r>
       <r>   22.4902    0.0000 </r>
       <r>   27.0272    0.0000 </r>
       <r>   27.0822    0.0000 </r>
       <r>   28.4112    0.0000 </r>
       <r>   28.7032    0.0000 </r>
       <r>   30.6953    0.0000 </r>
       <r>   30.8369    0.0000 </r>
       <r>   31.5116    0.0000 </r>
       <r>   33.8686    0.0000 </r>
       <r>   35.9137    0.0000 </r>
       <r>   37.1007    0.0000 </r>
       <r>   38.9872    0.0000 </r>
       <r>   39.5173    0.0000 </r>
      </set>
      <set comment="kpoint 22">
       <r>   -6.1434    1.0000 </r>
       <r>   -6.1410    1.0000 </r>
       <r>   -2.7691    1.0000 </r>
       <r>   -2.7662    1.0000 </r>
       <r>    0.8116    1.0000 </r>
       <r>    0.8241    1.0000 </r>
       <r>    0.8272    1.0000 </r>
       <r>    0.8355    1.0000 </r>
       <r>    5.0193    0.0000 </r>
       <r>    5.0289    0.0000 </r>
       <r>    5.2335    0.0000 </r>
       <r>    5.2407    0.0000 </r>
       <r>   11.9354    0.0000 </r>
       <r>   11.9642    0.0000 </r>
       <r>   12.2898    0.0000 </r>
       <r>   12.3308    0.0000 </r>
       <r>   12.4663    0.0000 </r>
       <r>   12.5080    0.0000 </r>
       <r>   14.9543    0.0000 </r>
       <r>   14.9553    0.0000 </r>
       <r>   15.3697    0.0000 </r>
       <r>   15.4434    0.0000 </r>
       <r>   15.4484    0.0000 </r>
       <r>   15.4618    0.0000 </r>
       <r>   15.7243    0.0000 </r>
       <r>   15.7522    0.0000 </r>
       <r>   17.1214    0.0000 </r>
       <r>   17.1460    0.0000 </r>
       <r>   20.1403    0.0000 </r>
       <r>   20.1610    0.0000 </r>
       <r>   20.4113    0.0000 </r>
       <r>   20.5156    0.0000 </r>
       <r>   20.5491    0.0000 </r>
       <r>   20.6066    0.0000 </r>
       <r>   20.6468    0.0000 </r>
       <r>   20.7316    0.0000 </r>
       <r>   21.1712    0.0000 </r>
       <r>   21.1976    0.0000 </r>
       <r>   21.2014    0.0000 </r>
       <r>   21.2161    0.0000 </r>
       <r>   21.3960    0.0000 </r>
       <r>   21.6107    0.0000 </r>
       <r>   22.4548    0.0000 </r>
       <r>   22.4625    0.0000 </r>
       <r>   26.7226    0.0000 </r>
       <r>   26.7915    0.0000 </r>
       <r>   26.9423    0.0000 </r>
       <r>   27.0516    0.0000 </r>
       <r>   29.7290    0.0000 </r>
       <r>   29.9430    0.0000 </r>
       <r>   30.2386    0.0000 </r>
       <r>   30.3592    0.0000 </r>
       <r>   33.8346    0.0000 </r>
       <r>   34.0773    0.0000 </r>
       <r>   40.4725    0.0000 </r>
       <r>   40.8216    0.0000 </r>
      </set>
      <set comment="kpoint 23">
       <r>   -6.1439    1.0000 </r>
       <r>   -6.1392    1.0000 </r>
       <r>   -2.7678    1.0000 </r>
       <r>   -2.7619    1.0000 </r>
       <r>    0.7925    1.0000 </r>
       <r>    0.8104    1.0000 </r>
       <r>    0.8156    1.0000 </r>
       <r>    0.8285    1.0000 </r>
       <r>    5.0456    0.0000 </r>
       <r>    5.0644    0.0000 </r>
       <r>    5.2601    0.0000 </r>
       <r>    5.2744    0.0000 </r>
       <r>   11.8677    0.0000 </r>
       <r>   11.9146    0.0000 </r>
       <r>   12.2021    0.0000 </r>
       <r>   12.3098    0.0000 </r>
       <r>   12.4223    0.0000 </r>
       <r>   12.5238    0.0000 </r>
       <r>   14.9635    0.0000 </r>
       <r>   14.9670    0.0000 </r>
       <r>   15.3166    0.0000 </r>
       <r>   15.4113    0.0000 </r>
       <r>   15.4117    0.0000 </r>
       <r>   15.4287    0.0000 </r>
       <r>   15.8628    0.0000 </r>
       <r>   15.8907    0.0000 </r>
       <r>   17.1784    0.0000 </r>
       <r>   17.2248    0.0000 </r>
       <r>   19.9615    0.0000 </r>
       <r>   19.9786    0.0000 </r>
       <r>   20.3309    0.0000 </r>
       <r>   20.4454    0.0000 </r>
       <r>   20.4472    0.0000 </r>
       <r>   20.5129    0.0000 </r>
       <r>   20.7034    0.0000 </r>
       <r>   20.7941    0.0000 </r>
       <r>   20.9485    0.0000 </r>
       <r>   21.0122    0.0000 </r>
       <r>   21.4914    0.0000 </r>
       <r>   21.5904    0.0000 </r>
       <r>   21.9338    0.0000 </r>
       <r>   22.2411    0.0000 </r>
       <r>   22.3361    0.0000 </r>
       <r>   22.3769    0.0000 </r>
       <r>   26.4894    0.0000 </r>
       <r>   26.5915    0.0000 </r>
       <r>   26.6955    0.0000 </r>
       <r>   26.7382    0.0000 </r>
[...]
       <r>    27.4740     0.0000     0.0000 </r>
       <r>    27.6537     0.0000     0.0000 </r>
       <r>    27.8334     0.0000     0.0000 </r>
       <r>    28.0131     0.0000     0.0000 </r>
       <r>    28.1928     0.0000     0.0000 </r>
       <r>    28.3725     0.0000     0.0000 </r>
       <r>    28.5522     0.0000     0.0000 </r>
       <r>    28.7319     0.0000     0.0000 </r>
       <r>    28.9116     0.0000     0.0000 </r>
       <r>    29.0913     0.0000     0.0000 </r>
       <r>    29.2710     0.0000     0.0000 </r>
       <r>    29.4507     0.0000     0.0000 </r>
       <r>    29.6304     0.0000     0.0000 </r>
       <r>    29.8101     0.0000     0.0000 </r>
       <r>    29.9898     0.0000     0.0000 </r>
       <r>    30.1695     0.0000     0.0000 </r>
       <r>    30.3492     0.0000     0.0000 </r>
       <r>    30.5289     0.0000     0.0000 </r>
       <r>    30.7086     0.0000     0.0000 </r>
       <r>    30.8883     0.0000     0.0000 </r>
       <r>    31.0680     0.0000     0.0000 </r>
       <r>    31.2477     0.0000     0.0000 </r>
       <r>    31.4274     0.0000     0.0000 </r>
       <r>    31.6071     0.0000     0.0000 </r>
       <r>    31.7868     0.0000     0.0000 </r>
       <r>    31.9665     0.0000     0.0000 </r>
       <r>    32.1462     0.0000     0.0000 </r>
       <r>    32.3259     0.0000     0.0000 </r>
       <r>    32.5056     0.0000     0.0000 </r>
       <r>    32.6853     0.0000     0.0000 </r>
       <r>    32.8650     0.0000     0.0000 </r>
       <r>    33.0447     0.0000     0.0000 </r>
       <r>    33.2244     0.0000     0.0000 </r>
       <r>    33.4041     0.0000     0.0000 </r>
       <r>    33.5838     0.0000     0.0000 </r>
       <r>    33.7635     0.0000     0.0000 </r>
       <r>    33.9432     0.0000     0.0000 </r>
       <r>    34.1229     0.0000     0.0000 </r>
       <r>    34.3026     0.0000     0.0000 </r>
       <r>    34.4823     0.0000     0.0000 </r>
       <r>    34.6620     0.0000     0.0000 </r>
       <r>    34.8417     0.0000     0.0000 </r>
       <r>    35.0214     0.0000     0.0000 </r>
       <r>    35.2011     0.0000     0.0000 </r>
       <r>    35.3808     0.0000     0.0000 </r>
       <r>    35.5605     0.0000     0.0000 </r>
       <r>    35.7402     0.0000     0.0000 </r>
       <r>    35.9199     0.0000     0.0000 </r>
       <r>    36.0996     0.0000     0.0000 </r>
       <r>    36.2793     0.0000     0.0000 </r>
       <r>    36.4590     0.0000     0.0000 </r>
       <r>    36.6387     0.0000     0.0000 </r>
       <r>    36.8184     0.0000     0.0000 </r>
       <r>    36.9981     0.0000     0.0000 </r>
       <r>    37.1778     0.0000     0.0000 </r>
       <r>    37.3575     0.0000     0.0000 </r>
       <r>    37.5372     0.0000     0.0000 </r>
       <r>    37.7169     0.0000     0.0000 </r>
       <r>    37.8966     0.0000     0.0000 </r>
       <r>    38.0763     0.0000     0.0000 </r>
       <r>    38.2560     0.0000     0.0000 </r>
       <r>    38.4357     0.0000     0.0000 </r>
       <r>    38.6154     0.0000     0.0000 </r>
       <r>    38.7951     0.0000     0.0000 </r>
       <r>    38.9748     0.0000     0.0000 </r>
       <r>    39.1545     0.0000     0.0000 </r>
       <r>    39.3342     0.0000     0.0000 </r>
       <r>    39.5139     0.0000     0.0000 </r>
       <r>    39.6936     0.0000     0.0000 </r>
       <r>    39.8733     0.0000     0.0000 </r>
       <r>    40.0530     0.0000     0.0000 </r>
       <r>    40.2327     0.0000     0.0000 </r>
       <r>    40.4124     0.0000     0.0000 </r>
       <r>    40.5921     0.0000     0.0000 </r>
       <r>    40.7718     0.0000     0.0000 </r>
       <r>    40.9515     0.0000     0.0000 </r>
       <r>    41.1312     0.0000     0.0000 </r>
       <r>    41.3109     0.0000     0.0000 </r>
       <r>    41.4906     0.0000     0.0000 </r>
       <r>    41.6703     0.0000     0.0000 </r>
       <r>    41.8500     0.0000     0.0000 </r>
       <r>    42.0297     0.0000     0.0000 </r>
       <r>    42.2094     0.0000     0.0000 </r>
       <r>    42.3891     0.0000     0.0000 </r>
       <r>    42.5688     0.0000     0.0000 </r>
       <r>    42.7485     0.0000     0.0000 </r>
       <r>    42.9282     0.0000     0.0000 </r>
       <r>    43.1079     0.0000     0.0000 </r>
       <r>    43.2876     0.0000     0.0000 </r>
      </set>
      <set comment="spin 4">
       <r>   -10.6223     0.0000     0.0000 </r>
       <r>   -10.4426     0.0000     0.0000 </r>
       <r>   -10.2629     0.0000     0.0000 </r>
       <r>   -10.0832     0.0000     0.0000 </r>
       <r>    -9.9035     0.0000     0.0000 </r>
       <r>    -9.7238     0.0000     0.0000 </r>
       <r>    -9.5441     0.0000     0.0000 </r>
       <r>    -9.3644     0.0000     0.0000 </r>
       <r>    -9.1847     0.0000     0.0000 </r>
       <r>    -9.0050     0.0000     0.0000 </r>
       <r>    -8.8253     0.0000     0.0000 </r>
       <r>    -8.6456     0.0000     0.0000 </r>
       <r>    -8.4659     0.0000     0.0000 </r>
       <r>    -8.2862     0.0000     0.0000 </r>
       <r>    -8.1065     0.0000     0.0000 </r>
       <r>    -7.9268     0.0000     0.0000 </r>
       <r>    -7.7471     0.0000     0.0000 </r>
       <r>    -7.5674     0.0000     0.0000 </r>
       <r>    -7.3877     0.0000     0.0000 </r>
       <r>    -7.2080     0.0000     0.0000 </r>
       <r>    -7.0283     0.0000     0.0000 </r>
       <r>    -6.8486     0.0000     0.0000 </r>
       <r>    -6.6689     0.0000     0.0000 </r>
       <r>    -6.4892     0.0000     0.0000 </r>
       <r>    -6.3095     0.0000     0.0000 </r>
       <r>    -6.1298     0.0000     0.0000 </r>
       <r>    -5.9501     0.0000     0.0000 </r>
       <r>    -5.7704     0.0000     0.0000 </r>
       <r>    -5.5907     0.0000     0.0000 </r>
       <r>    -5.4110     0.0000     0.0000 </r>
       <r>    -5.2313     0.0000     0.0000 </r>
       <r>    -5.0516     0.0000     0.0000 </r>
       <r>    -4.8719     0.0000     0.0000 </r>
       <r>    -4.6922     0.0000     0.0000 </r>
       <r>    -4.5125     0.0000     0.0000 </r>
       <r>    -4.3328     0.0000     0.0000 </r>
       <r>    -4.1531     0.0000     0.0000 </r>
       <r>    -3.9734     0.0000     0.0000 </r>
       <r>    -3.7937     0.0000     0.0000 </r>
       <r>    -3.6140     0.0000     0.0000 </r>
       <r>    -3.4343     0.0000     0.0000 </r>
       <r>    -3.2546     0.0000     0.0000 </r>
       <r>    -3.0749     0.0000     0.0000 </r>
       <r>    -2.8952     0.0000     0.0000 </r>
       <r>    -2.7155     0.0000     0.0000 </r>
       <r>    -2.5358     0.0000     0.0000 </r>
       <r>    -2.3561     0.0000     0.0000 </r>
       <r>    -2.1764     0.0000     0.0000 </r>
       <r>    -1.9967     0.0000     0.0000 </r>
       <r>    -1.8170     0.0000     0.0000 </r>
       <r>    -1.6373     0.0000     0.0000 </r>
       <r>    -1.4576     0.0000     0.0000 </r>
       <r>    -1.2779     0.0000     0.0000 </r>
       <r>    -1.0982     0.0000     0.0000 </r>
       <r>    -0.9185     0.0000     0.0000 </r>
       <r>    -0.7388     0.0000     0.0000 </r>
       <r>    -0.5591     0.0000     0.0000 </r>
       <r>    -0.3794     0.0000     0.0000 </r>
       <r>    -0.1997     0.0000     0.0000 </r>
       <r>    -0.0200     0.0000     0.0000 </r>
       <r>     0.1597     0.0000     0.0000 </r>
       <r>     0.3394     0.0000     0.0000 </r>
       <r>     0.5191     0.0000     0.0000 </r>
       <r>     0.6988     0.0000     0.0000 </r>
       <r>     0.8785     0.0000     0.0000 </r>
       <r>     1.0582     0.0000     0.0000 </r>
       <r>     1.2379     0.0000     0.0000 </r>
       <r>     1.4176     0.0000     0.0000 </r>
       <r>     1.5973     0.0000     0.0000 </r>
       <r>     1.7770     0.0000     0.0000 </r>
       <r>     1.9567     0.0000     0.0000 </r>
       <r>     2.1364     0.0000     0.0000 </r>
       <r>     2.3161     0.0000     0.0000 </r>
       <r>     2.4958     0.0000     0.0000 </r>
       <r>     2.6755     0.0000     0.0000 </r>
       <r>     2.8552     0.0000     0.0000 </r>
       <r>     3.0349     0.0000     0.0000 </r>
       <r>     3.2146     0.0000     0.0000 </r>
       <r>     3.3943     0.0000     0.0000 </r>
       <r>     3.5740     0.0000     0.0000 </r>
       <r>     3.7537     0.0000     0.0000 </r>
       <r>     3.9334     0.0000     0.0000 </r>
       <r>     4.1131     0.0000     0.0000 </r>
       <r>     4.2928     0.0000     0.0000 </r>
       <r>     4.4725     0.0000     0.0000 </r>
       <r>     4.6522     0.0000     0.0000 </r>
       <r>     4.8319     0.0000     0.0000 </r>
       <r>     5.0116     0.0000     0.0000 </r>
       <r>     5.1913     0.0000     0.0000 </r>
       <r>     5.3710     0.0000     0.0000 </r>
       <r>     5.5507     0.0000     0.0000 </r>
       <r>     5.7304     0.0000     0.0000 </r>
       <r>     5.9101     0.0000     0.0000 </r>
       <r>     6.0898     0.0000     0.0000 </r>
       <r>     6.2695     0.0000     0.0000 </r>
       <r>     6.4492     0.0000     0.0000 </r>
       <r>     6.6289     0.0000     0.0000 </r>
       <r>     6.8086     0.0000     0.0000 </r>
       <r>     6.9883     0.0000     0.0000 </r>
       <r>     7.1680     0.0000     0.0000 </r>
       <r>     7.3477     0.0000     0.0000 </r>
       <r>     7.5274     0.0000     0.0000 </r>
       <r>     7.7071     0.0000     0.0000 </r>
       <r>     7.8868     0.0000     0.0000 </r>
       <r>     8.0665     0.0000     0.0000 </r>
       <r>     8.2462     0.0000     0.0000 </r>
       <r>     8.4259     0.0000     0.0000 </r>
       <r>     8.6056     0.0000     0.0000 </r>
       <r>     8.7853     0.0000     0.0000 </r>
       <r>     8.9650     0.0000     0.0000 </r>
       <r>     9.1447     0.0000     0.0000 </r>
       <r>     9.3244     0.0000     0.0000 </r>
       <r>     9.5041     0.0000     0.0000 </r>
       <r>     9.6838     0.0000     0.0000 </r>
       <r>     9.8635     0.0000     0.0000 </r>
       <r>    10.0432     0.0000     0.0000 </r>
       <r>    10.2229     0.0000     0.0000 </r>
       <r>    10.4026     0.0000     0.0000 </r>
       <r>    10.5823     0.0000     0.0000 </r>
       <r>    10.7620     0.0000     0.0000 </r>
       <r>    10.9417     0.0000     0.0000 </r>
       <r>    11.1214     0.0000     0.0000 </r>
       <r>    11.3011     0.0000     0.0000 </r>
       <r>    11.4808     0.0000     0.0000 </r>
       <r>    11.6605     0.0000     0.0000 </r>
       <r>    11.8402     0.0000     0.0000 </r>
       <r>    12.0199     0.0000     0.0000 </r>
       <r>    12.1996     0.0000     0.0000 </r>
       <r>    12.3793     0.0000     0.0000 </r>
       <r>    12.5590     0.0000     0.0000 </r>
       <r>    12.7387     0.0000     0.0000 </r>
       <r>    12.9184     0.0000     0.0000 </r>
       <r>    13.0981     0.0000     0.0000 </r>
       <r>    13.2778     0.0000     0.0000 </r>
       <r>    13.4575     0.0000     0.0000 </r>
       <r>    13.6372     0.0000     0.0000 </r>
       <r>    13.8169     0.0000     0.0000 </r>
       <r>    13.9966     0.0000     0.0000 </r>
       <r>    14.1763     0.0000     0.0000 </r>
       <r>    14.3560     0.0000     0.0000 </r>
       <r>    14.5357     0.0000     0.0000 </r>
       <r>    14.7154     0.0000     0.0000 </r>
       <r>    14.8951     0.0000     0.0000 </r>
       <r>    15.0748     0.0000     0.0000 </r>
       <r>    15.2545     0.0000     0.0000 </r>
       <r>    15.4342     0.0000     0.0000 </r>
       <r>    15.6139     0.0000     0.0000 </r>
       <r>    15.7936     0.0000     0.0000 </r>
       <r>    15.9733     0.0000     0.0000 </r>
       <r>    16.1530     0.0000     0.0000 </r>
       <r>    16.3327     0.0000     0.0000 </r>
       <r>    16.5124     0.0000     0.0000 </r>
       <r>    16.6921     0.0000     0.0000 </r>
       <r>    16.8718     0.0000     0.0000 </r>
       <r>    17.0515     0.0000     0.0000 </r>
       <r>    17.2312     0.0000     0.0000 </r>
       <r>    17.4109     0.0000     0.0000 </r>
       <r>    17.5906     0.0000     0.0000 </r>
       <r>    17.7703     0.0000     0.0000 </r>
       <r>    17.9500     0.0000     0.0000 </r>
       <r>    18.1297     0.0000     0.0000 </r>
       <r>    18.3094     0.0000     0.0000 </r>
       <r>    18.4891     0.0000     0.0000 </r>
       <r>    18.6688     0.0000     0.0000 </r>
       <r>    18.8485     0.0000     0.0000 </r>
       <r>    19.0282     0.0000     0.0000 </r>
       <r>    19.2079     0.0000     0.0000 </r>
       <r>    19.3876     0.0000     0.0000 </r>
       <r>    19.5673     0.0000     0.0000 </r>
       <r>    19.7470     0.0000     0.0000 </r>
       <r>    19.9267     0.0000     0.0000 </r>
       <r>    20.1064     0.0000     0.0000 </r>
       <r>    20.2861     0.0000     0.0000 </r>
       <r>    20.4658     0.0000     0.0000 </r>
       <r>    20.6455     0.0000     0.0000 </r>
       <r>    20.8252     0.0000     0.0000 </r>
       <r>    21.0049     0.0000     0.0000 </r>
       <r>    21.1846     0.0000     0.0000 </r>
       <r>    21.3643     0.0000     0.0000 </r>
       <r>    21.5440     0.0000     0.0000 </r>
       <r>    21.7237     0.0000     0.0000 </r>
       <r>    21.9034     0.0000     0.0000 </r>
       <r>    22.0831     0.0000     0.0000 </r>
       <r>    22.2628     0.0000     0.0000 </r>
       <r>    22.4425     0.0000     0.0000 </r>
       <r>    22.6222     0.0000     0.0000 </r>
       <r>    22.8019     0.0000     0.0000 </r>
       <r>    22.9816     0.0000     0.0000 </r>
       <r>    23.1613     0.0000     0.0000 </r>
       <r>    23.3409     0.0000     0.0000 </r>
       <r>    23.5206     0.0000     0.0000 </r>
       <r>    23.7003     0.0000     0.0000 </r>
       <r>    23.8800     0.0000     0.0000 </r>
       <r>    24.0597     0.0000     0.0000 </r>
       <r>    24.2394     0.0000     0.0000 </r>
       <r>    24.4191     0.0000     0.0000 </r>
       <r>    24.5988     0.0000     0.0000 </r>
       <r>    24.7785     0.0000     0.0000 </r>
       <r>    24.9582     0.0000     0.0000 </r>
       <r>    25.1379     0.0000     0.0000 </r>
       <r>    25.3176     0.0000     0.0000 </r>
       <r>    25.4973     0.0000     0.0000 </r>
       <r>    25.6770     0.0000     0.0000 </r>
       <r>    25.8567     0.0000     0.0000 </r>
       <r>    26.0364     0.0000     0.0000 </r>
       <r>    26.2161     0.0000     0.0000 </r>
       <r>    26.3958     0.0000     0.0000 </r>
       <r>    26.5755     0.0000     0.0000 </r>
       <r>    26.7552     0.0000     0.0000 </r>
       <r>    26.9349     0.0000     0.0000 </r>
       <r>    27.1146     0.0000     0.0000 </r>
       <r>    27.2943     0.0000     0.0000 </r>
       <r>    27.4740     0.0000     0.0000 </r>
       <r>    27.6537     0.0000     0.0000 </r>
       <r>    27.8334     0.0000     0.0000 </r>
       <r>    28.0131     0.0000     0.0000 </r>
       <r>    28.1928     0.0000     0.0000 </r>
       <r>    28.3725     0.0000     0.0000 </r>
       <r>    28.5522     0.0000     0.0000 </r>
       <r>    28.7319     0.0000     0.0000 </r>
       <r>    28.9116     0.0000     0.0000 </r>
       <r>    29.0913     0.0000     0.0000 </r>
       <r>    29.2710     0.0000     0.0000 </r>
       <r>    29.4507     0.0000     0.0000 </r>
       <r>    29.6304     0.0000     0.0000 </r>
       <r>    29.8101     0.0000     0.0000 </r>
       <r>    29.9898     0.0000     0.0000 </r>
       <r>    30.1695     0.0000     0.0000 </r>
       <r>    30.3492     0.0000     0.0000 </r>
       <r>    30.5289     0.0000     0.0000 </r>
       <r>    30.7086     0.0000     0.0000 </r>
       <r>    30.8883     0.0000     0.0000 </r>
       <r>    31.0680     0.0000     0.0000 </r>
       <r>    31.2477     0.0000     0.0000 </r>
       <r>    31.4274     0.0000     0.0000 </r>
       <r>    31.6071     0.0000     0.0000 </r>
       <r>    31.7868     0.0000     0.0000 </r>
       <r>    31.9665     0.0000     0.0000 </r>
       <r>    32.1462     0.0000     0.0000 </r>
       <r>    32.3259     0.0000     0.0000 </r>
       <r>    32.5056     0.0000     0.0000 </r>
       <r>    32.6853     0.0000     0.0000 </r>
       <r>    32.8650     0.0000     0.0000 </r>
       <r>    33.0447     0.0000     0.0000 </r>
       <r>    33.2244     0.0000     0.0000 </r>
       <r>    33.4041     0.0000     0.0000 </r>
       <r>    33.5838     0.0000     0.0000 </r>
       <r>    33.7635     0.0000     0.0000 </r>
       <r>    33.9432     0.0000     0.0000 </r>
       <r>    34.1229     0.0000     0.0000 </r>
       <r>    34.3026     0.0000     0.0000 </r>
       <r>    34.4823     0.0000     0.0000 </r>
       <r>    34.6620     0.0000     0.0000 </r>
       <r>    34.8417     0.0000     0.0000 </r>
       <r>    35.0214     0.0000     0.0000 </r>
       <r>    35.2011     0.0000     0.0000 </r>
       <r>    35.3808     0.0000     0.0000 </r>
       <r>    35.5605     0.0000     0.0000 </r>
       <r>    35.7402     0.0000     0.0000 </r>
       <r>    35.9199     0.0000     0.0000 </r>
       <r>    36.0996     0.0000     0.0000 </r>
       <r>    36.2793     0.0000     0.0000 </r>
       <r>    36.4590     0.0000     0.0000 </r>
       <r>    36.6387     0.0000     0.0000 </r>
       <r>    36.8184     0.0000     0.0000 </r>
       <r>    36.9981     0.0000     0.0000 </r>
       <r>    37.1778     0.0000     0.0000 </r>
       <r>    37.3575     0.0000     0.0000 </r>
       <r>    37.5372     0.0000     0.0000 </r>
       <r>    37.7169     0.0000     0.0000 </r>
       <r>    37.8966     0.0000     0.0000 </r>
       <r>    38.0763     0.0000     0.0000 </r>
       <r>    38.2560     0.0000     0.0000 </r>
       <r>    38.4357     0.0000     0.0000 </r>
       <r>    38.6154     0.0000     0.0000 </r>
       <r>    38.7951     0.0000     0.0000 </r>
       <r>    38.9748     0.0000     0.0000 </r>
       <r>    39.1545     0.0000     0.0000 </r>
       <r>    39.3342     0.0000     0.0000 </r>
       <r>    39.5139     0.0000     0.0000 </r>
       <r>    39.6936     0.0000     0.0000 </r>
       <r>    39.8733     0.0000     0.0000 </r>
       <r>    40.0530     0.0000     0.0000 </r>
       <r>    40.2327     0.0000     0.0000 </r>
       <r>    40.4124     0.0000     0.0000 </r>
       <r>    40.5921     0.0000     0.0000 </r>
       <r>    40.7718     0.0000     0.0000 </r>
       <r>    40.9515     0.0000     0.0000 </r>
       <r>    41.1312     0.0000     0.0000 </r>
       <r>    41.3109     0.0000     0.0000 </r>
       <r>    41.4906     0.0000     0.0000 </r>
       <r>    41.6703     0.0000     0.0000 </r>
       <r>    41.8500     0.0000     0.0000 </r>
       <r>    42.0297     0.0000     0.0000 </r>
       <r>    42.2094     0.0000     0.0000 </r>
       <r>    42.3891     0.0000     0.0000 </r>
       <r>    42.5688     0.0000     0.0000 </r>
       <r>    42.7485     0.0000     0.0000 </r>
       <r>    42.9282     0.0000     0.0000 </r>
       <r>    43.1079     0.0000     0.0000 </r>
       <r>    43.2876     0.0000     0.0000 </r>
      </set>
     </set>
    </array>
   </total>
  </dos>
 </calculation>
 <structure name="finalpos" >
  <crystal>
   <varray name="basis" >
    <v>       0.00000000       3.02920000       3.02920000 </v>
    <v>       3.02920000       0.00000000       3.02920000 </v>
    <v>       3.02920000       3.02920000       0.00000000 </v>
   </varray>
   <i name="volume">     55.59219731 </i>
   <varray name="rec_basis" >
    <v>      -0.16506008       0.16506008       0.16506008 </v>
    <v>       0.16506008      -0.16506008       0.16506008 </v>
    <v>       0.16506008       0.16506008      -0.16506008 </v>
   </varray>
  </crystal>
  <varray name="positions" >
   <v>       0.00000000       0.00000000       0.00000000 </v>
   <v>       0.25000000       0.25000000       0.25000000 </v>
  </varray>
 </structure>
</modeling>
